<VTKFile type="ImageData">
<ImageData Origin="0 -10 0" Spacing="0.5 0.5 1" WholeExtent="0 20 0 40 0 0">
<Piece Extent="0 20 0 40 0 0">
<PointData>
<DataArray Name="f" NumberOfComponents="1" format="ascii" type="Float64">
0.0001403 0.0001403 0.0001403 0.0001403 0.0001403 0.0001403 0.0001403 0.0001403 0.0001403 0.0001403 0.0001403 0.0001403 0.0001403 0.0001403 0.0001403 0.0001403 0.0001403 0.0001403 0.0001403 0.0001403 0.0001403 
0.000425 0.000425 0.000425 0.000425 0.000425 0.000425 0.000425 0.000425 0.000425 0.000425 0.000425 0.000425 0.000425 0.000425 0.000425 0.000425 0.000425 0.000425 0.000425 0.000425 0.000425 
0.001182 0.001182 0.001182 0.001182 0.001182 0.001182 0.001182 0.001182 0.001182 0.001182 0.001182 0.001182 0.001182 0.001182 0.001182 0.001182 0.001182 0.001182 0.001182 0.001182 0.001182 
0.003017 0.003017 0.003017 0.003017 0.003017 0.003017 0.003017 0.003017 0.003017 0.003017 0.003017 0.003017 0.003017 0.003017 0.003017 0.003017 0.003017 0.003017 0.003017 0.003017 0.003017 
0.007062 0.007062 0.007062 0.007062 0.007062 0.007062 0.007062 0.007062 0.007062 0.007062 0.007062 0.007062 0.007062 0.007062 0.007062 0.007062 0.007062 0.007062 0.007062 0.007062 0.007062 
0.01516 0.01516 0.01516 0.01516 0.01516 0.01516 0.01516 0.01516 0.01516 0.01516 0.01516 0.01516 0.01516 0.01516 0.01516 0.01516 0.01516 0.01516 0.01516 0.01516 0.01516 
0.02979 0.02979 0.02979 0.02979 0.02979 0.02979 0.02979 0.02979 0.02979 0.02979 0.02979 0.02979 0.02979 0.02979 0.02979 0.02979 0.02979 0.02979 0.02979 0.02979 0.02979 
0.05357 0.05357 0.05357 0.05357 0.05357 0.05357 0.05357 0.05357 0.05357 0.05357 0.05357 0.05357 0.05357 0.05357 0.05357 0.05357 0.05357 0.05357 0.05357 0.05357 0.05357 
0.08803 0.08803 0.08803 0.08803 0.08803 0.08803 0.08803 0.08803 0.08803 0.08803 0.08803 0.08803 0.08803 0.08803 0.08803 0.08803 0.08803 0.08803 0.08803 0.08803 0.08803 
0.132 0.132 0.132 0.132 0.132 0.132 0.132 0.132 0.132 0.132 0.132 0.132 0.132 0.132 0.132 0.132 0.132 0.132 0.132 0.132 0.132 
0.1801 0.1801 0.1801 0.1801 0.1801 0.1801 0.1801 0.1801 0.1801 0.1801 0.1801 0.1801 0.1801 0.1801 0.1801 0.1801 0.1801 0.1801 0.1801 0.1801 0.1801 
0.2234 0.2234 0.2234 0.2234 0.2234 0.2234 0.2234 0.2234 0.2234 0.2234 0.2234 0.2234 0.2234 0.2234 0.2234 0.2234 0.2234 0.2234 0.2234 0.2234 0.2234 
0.2512 0.2512 0.2512 0.2512 0.2512 0.2512 0.2512 0.2512 0.2512 0.2512 0.2512 0.2512 0.2512 0.2512 0.2512 0.2512 0.2512 0.2512 0.2512 0.2512 0.2512 
0.2552 0.2552 0.2552 0.2552 0.2552 0.2552 0.2552 0.2552 0.2552 0.2552 0.2552 0.2552 0.2552 0.2552 0.2552 0.2552 0.2552 0.2552 0.2552 0.2552 0.2552 
0.2337 0.2337 0.2337 0.2337 0.2337 0.2337 0.2337 0.2337 0.2337 0.2337 0.2337 0.2337 0.2337 0.2337 0.2337 0.2337 0.2337 0.2337 0.2337 0.2337 0.2337 
0.1921 0.1921 0.1921 0.1921 0.1921 0.1921 0.1921 0.1921 0.1921 0.1921 0.1921 0.1921 0.1921 0.1921 0.1921 0.1921 0.1921 0.1921 0.1921 0.1921 0.1921 
0.1412 0.1412 0.1412 0.1412 0.1412 0.1412 0.1412 0.1412 0.1412 0.1412 0.1412 0.1412 0.1412 0.1412 0.1412 0.1412 0.1412 0.1412 0.1412 0.1412 0.1412 
0.09242 0.09242 0.09242 0.09242 0.09242 0.09242 0.09242 0.09242 0.09243 0.09243 0.09243 0.09243 0.09243 0.09243 0.09243 0.09243 0.09243 0.09243 0.09243 0.09243 0.09242 
0.05359 0.05359 0.05359 0.05359 0.05359 0.05359 0.05359 0.05359 0.05359 0.05359 0.05359 0.05359 0.05359 0.05359 0.05359 0.05359 0.05359 0.05359 0.05359 0.05359 0.05359 
0.02737 0.02737 0.02737 0.02737 0.02737 0.02737 0.02737 0.02737 0.02737 0.02737 0.02737 0.02737 0.02737 0.02737 0.02737 0.02737 0.02737 0.02737 0.02737 0.02737 0.02737 
0.01225 0.01225 0.01225 0.01225 0.01225 0.01225 0.01225 0.01225 0.01225 0.01225 0.01225 0.01225 0.01225 0.01225 0.01225 0.01225 0.01225 0.01225 0.01225 0.01225 0.01225 
0.004768 0.004768 0.004768 0.004768 0.004768 0.004768 0.004768 0.004768 0.004768 0.004768 0.004768 0.004768 0.004768 0.004768 0.004768 0.004768 0.004768 0.004768 0.004768 0.004768 0.004768 
0.001604 0.001604 0.001604 0.001604 0.001604 0.001604 0.001604 0.001604 0.001604 0.001604 0.001604 0.001604 0.001604 0.001604 0.001604 0.001604 0.001604 0.001604 0.001604 0.001604 0.001604 
0.0004626 0.0004626 0.0004626 0.0004626 0.0004626 0.0004626 0.0004626 0.0004626 0.0004626 0.0004626 0.0004626 0.0004626 0.0004626 0.0004626 0.0004626 0.0004626 0.0004626 0.0004626 0.0004626 0.0004626 0.0004626 
0.0001135 0.0001135 0.0001135 0.0001135 0.0001135 0.0001135 0.0001135 0.0001135 0.0001135 0.0001135 0.0001135 0.0001135 0.0001135 0.0001135 0.0001135 0.0001135 0.0001135 0.0001135 0.0001135 0.0001135 0.0001135 
2.35e-05 2.35e-05 2.35e-05 2.35e-05 2.35e-05 2.35e-05 2.35e-05 2.35e-05 2.35e-05 2.35e-05 2.35e-05 2.35e-05 2.35e-05 2.35e-05 2.35e-05 2.35e-05 2.35e-05 2.35e-05 2.35e-05 2.35e-05 2.35e-05 
4.072e-06 4.071e-06 4.071e-06 4.071e-06 4.071e-06 4.071e-06 4.071e-06 4.071e-06 4.071e-06 4.071e-06 4.072e-06 4.072e-06 4.072e-06 4.072e-06 4.072e-06 4.072e-06 4.072e-06 4.072e-06 4.072e-06 4.072e-06 4.072e-06 
5.852e-07 5.852e-07 5.852e-07 5.852e-07 5.852e-07 5.852e-07 5.852e-07 5.852e-07 5.852e-07 5.852e-07 5.852e-07 5.852e-07 5.852e-07 5.852e-07 5.852e-07 5.852e-07 5.852e-07 5.852e-07 5.852e-07 5.852e-07 5.852e-07 
6.921e-08 6.921e-08 6.921e-08 6.921e-08 6.921e-08 6.921e-08 6.921e-08 6.921e-08 6.921e-08 6.921e-08 6.921e-08 6.921e-08 6.921e-08 6.921e-08 6.921e-08 6.921e-08 6.921e-08 6.921e-08 6.921e-08 6.921e-08 6.921e-08 
6.683e-09 6.683e-09 6.683e-09 6.683e-09 6.683e-09 6.683e-09 6.683e-09 6.683e-09 6.683e-09 6.683e-09 6.683e-09 6.683e-09 6.683e-09 6.683e-09 6.683e-09 6.683e-09 6.683e-09 6.683e-09 6.683e-09 6.683e-09 6.683e-09 
5.252e-10 5.252e-10 5.252e-10 5.252e-10 5.252e-10 5.252e-10 5.252e-10 5.252e-10 5.252e-10 5.252e-10 5.252e-10 5.252e-10 5.252e-10 5.252e-10 5.252e-10 5.252e-10 5.252e-10 5.252e-10 5.252e-10 5.252e-10 5.252e-10 
5.014e-11 5.014e-11 5.014e-11 5.014e-11 5.014e-11 5.014e-11 5.014e-11 5.014e-11 5.014e-11 5.014e-11 5.014e-11 5.014e-11 5.014e-11 5.014e-11 5.014e-11 5.014e-11 5.014e-11 5.014e-11 5.014e-11 5.014e-11 5.014e-11 
1.291e-10 1.291e-10 1.291e-10 1.291e-10 1.291e-10 1.291e-10 1.291e-10 1.291e-10 1.291e-10 1.291e-10 1.291e-10 1.291e-10 1.291e-10 1.291e-10 1.291e-10 1.291e-10 1.291e-10 1.291e-10 1.291e-10 1.291e-10 1.291e-10 
8.585e-10 8.585e-10 8.585e-10 8.585e-10 8.585e-10 8.585e-10 8.585e-10 8.585e-10 8.585e-10 8.585e-10 8.585e-10 8.585e-10 8.585e-10 8.585e-10 8.585e-10 8.585e-10 8.585e-10 8.585e-10 8.585e-10 8.585e-10 8.585e-10 
5.265e-09 5.265e-09 5.265e-09 5.265e-09 5.265e-09 5.265e-09 5.265e-09 5.265e-09 5.265e-09 5.265e-09 5.265e-09 5.265e-09 5.265e-09 5.265e-09 5.265e-09 5.265e-09 5.265e-09 5.265e-09 5.265e-09 5.265e-09 5.265e-09 
2.945e-08 2.945e-08 2.945e-08 2.945e-08 2.945e-08 2.945e-08 2.945e-08 2.945e-08 2.945e-08 2.945e-08 2.945e-08 2.945e-08 2.945e-08 2.945e-08 2.945e-08 2.945e-08 2.945e-08 2.945e-08 2.945e-08 2.945e-08 2.945e-08 
1.505e-07 1.505e-07 1.505e-07 1.505e-07 1.505e-07 1.505e-07 1.505e-07 1.505e-07 1.505e-07 1.505e-07 1.505e-07 1.505e-07 1.505e-07 1.505e-07 1.505e-07 1.505e-07 1.505e-07 1.505e-07 1.505e-07 1.505e-07 1.505e-07 
7.033e-07 7.033e-07 7.033e-07 7.033e-07 7.033e-07 7.033e-07 7.033e-07 7.033e-07 7.033e-07 7.033e-07 7.033e-07 7.033e-07 7.033e-07 7.033e-07 7.033e-07 7.033e-07 7.033e-07 7.033e-07 7.033e-07 7.033e-07 7.033e-07 
3.01e-06 3.01e-06 3.01e-06 3.01e-06 3.01e-06 3.01e-06 3.01e-06 3.01e-06 3.01e-06 3.01e-06 3.01e-06 3.01e-06 3.01e-06 3.01e-06 3.01e-06 3.01e-06 3.01e-06 3.01e-06 3.01e-06 3.01e-06 3.01e-06 
1.181e-05 1.181e-05 1.181e-05 1.181e-05 1.181e-05 1.181e-05 1.181e-05 1.181e-05 1.181e-05 1.181e-05 1.181e-05 1.181e-05 1.181e-05 1.181e-05 1.181e-05 1.181e-05 1.181e-05 1.181e-05 1.181e-05 1.181e-05 1.181e-05 
4.249e-05 4.249e-05 4.249e-05 4.249e-05 4.249e-05 4.249e-05 4.249e-05 4.249e-05 4.249e-05 4.249e-05 4.249e-05 4.249e-05 4.249e-05 4.249e-05 4.249e-05 4.249e-05 4.249e-05 4.249e-05 4.249e-05 4.249e-05 4.249e-05 
</DataArray>
<DataArray Name="E" NumberOfComponents="1" format="ascii" type="Float64">
0.9834 0.9834 0.9834 0.9834 0.9834 0.9834 0.9834 0.9834 0.9834 0.9834 0.9834 0.9834 0.9834 0.9834 0.9834 0.9834 0.9834 0.9834 0.9834 0.9834 0.9834 
0.9834 0.9834 0.9834 0.9834 0.9834 0.9834 0.9834 0.9834 0.9834 0.9834 0.9834 0.9834 0.9834 0.9834 0.9834 0.9834 0.9834 0.9834 0.9834 0.9834 0.9834 
0.9834 0.9834 0.9834 0.9834 0.9834 0.9834 0.9834 0.9834 0.9834 0.9834 0.9834 0.9834 0.9834 0.9834 0.9834 0.9834 0.9834 0.9834 0.9834 0.9834 0.9834 
0.9834 0.9834 0.9834 0.9834 0.9834 0.9834 0.9834 0.9834 0.9834 0.9834 0.9834 0.9834 0.9834 0.9834 0.9834 0.9834 0.9834 0.9834 0.9834 0.9834 0.9834 
0.9834 0.9834 0.9834 0.9834 0.9834 0.9834 0.9834 0.9834 0.9834 0.9834 0.9834 0.9834 0.9834 0.9834 0.9834 0.9834 0.9834 0.9834 0.9834 0.9834 0.9834 
0.9834 0.9834 0.9834 0.9834 0.9834 0.9834 0.9834 0.9834 0.9834 0.9834 0.9834 0.9834 0.9834 0.9834 0.9834 0.9834 0.9834 0.9834 0.9834 0.9834 0.9834 
0.9834 0.9834 0.9834 0.9834 0.9834 0.9834 0.9834 0.9834 0.9834 0.9834 0.9834 0.9834 0.9834 0.9834 0.9834 0.9834 0.9834 0.9834 0.9834 0.9834 0.9834 
0.9834 0.9834 0.9834 0.9834 0.9834 0.9834 0.9834 0.9834 0.9834 0.9834 0.9834 0.9834 0.9834 0.9834 0.9834 0.9834 0.9834 0.9834 0.9834 0.9834 0.9834 
0.9834 0.9834 0.9834 0.9834 0.9834 0.9834 0.9834 0.9834 0.9834 0.9834 0.9834 0.9834 0.9834 0.9834 0.9834 0.9834 0.9834 0.9834 0.9834 0.9834 0.9834 
0.9834 0.9834 0.9834 0.9834 0.9834 0.9834 0.9834 0.9834 0.9834 0.9834 0.9834 0.9834 0.9834 0.9834 0.9834 0.9834 0.9834 0.9834 0.9834 0.9834 0.9834 
0.9834 0.9834 0.9834 0.9834 0.9834 0.9834 0.9834 0.9834 0.9834 0.9834 0.9834 0.9834 0.9834 0.9834 0.9834 0.9834 0.9834 0.9834 0.9834 0.9834 0.9834 
0.9834 0.9834 0.9834 0.9834 0.9834 0.9834 0.9834 0.9834 0.9834 0.9834 0.9834 0.9834 0.9834 0.9834 0.9834 0.9834 0.9834 0.9834 0.9834 0.9834 0.9834 
0.9834 0.9834 0.9834 0.9834 0.9834 0.9834 0.9834 0.9834 0.9834 0.9834 0.9834 0.9834 0.9834 0.9834 0.9834 0.9834 0.9834 0.9834 0.9834 0.9834 0.9834 
0.9834 0.9834 0.9834 0.9834 0.9834 0.9834 0.9834 0.9834 0.9834 0.9834 0.9834 0.9834 0.9834 0.9834 0.9834 0.9834 0.9834 0.9834 0.9834 0.9834 0.9834 
0.9834 0.9834 0.9834 0.9834 0.9834 0.9834 0.9834 0.9834 0.9834 0.9834 0.9834 0.9834 0.9834 0.9834 0.9834 0.9834 0.9834 0.9834 0.9834 0.9834 0.9834 
0.9834 0.9834 0.9834 0.9834 0.9834 0.9834 0.9834 0.9834 0.9834 0.9834 0.9834 0.9834 0.9834 0.9834 0.9834 0.9834 0.9834 0.9834 0.9834 0.9834 0.9834 
0.9834 0.9834 0.9834 0.9834 0.9834 0.9834 0.9834 0.9834 0.9834 0.9834 0.9834 0.9834 0.9834 0.9834 0.9834 0.9834 0.9834 0.9834 0.9834 0.9834 0.9834 
0.9834 0.9834 0.9834 0.9834 0.9834 0.9834 0.9834 0.9834 0.9834 0.9834 0.9834 0.9834 0.9834 0.9834 0.9834 0.9834 0.9834 0.9834 0.9834 0.9834 0.9834 
0.9834 0.9834 0.9834 0.9834 0.9834 0.9834 0.9834 0.9834 0.9834 0.9834 0.9834 0.9834 0.9834 0.9834 0.9834 0.9834 0.9834 0.9834 0.9834 0.9834 0.9834 
0.9834 0.9834 0.9834 0.9834 0.9834 0.9834 0.9834 0.9834 0.9834 0.9834 0.9834 0.9834 0.9834 0.9834 0.9834 0.9834 0.9834 0.9834 0.9834 0.9834 0.9834 
0.9834 0.9834 0.9834 0.9834 0.9834 0.9834 0.9834 0.9834 0.9834 0.9834 0.9834 0.9834 0.9834 0.9834 0.9834 0.9834 0.9834 0.9834 0.9834 0.9834 0.9834 
0.9834 0.9834 0.9834 0.9834 0.9834 0.9834 0.9834 0.9834 0.9834 0.9834 0.9834 0.9834 0.9834 0.9834 0.9834 0.9834 0.9834 0.9834 0.9834 0.9834 0.9834 
0.9834 0.9834 0.9834 0.9834 0.9834 0.9834 0.9834 0.9834 0.9834 0.9834 0.9834 0.9834 0.9834 0.9834 0.9834 0.9834 0.9834 0.9834 0.9834 0.9834 0.9834 
0.9834 0.9834 0.9834 0.9834 0.9834 0.9834 0.9834 0.9834 0.9834 0.9834 0.9834 0.9834 0.9834 0.9834 0.9834 0.9834 0.9834 0.9834 0.9834 0.9834 0.9834 
0.9834 0.9834 0.9834 0.9834 0.9834 0.9834 0.9834 0.9834 0.9834 0.9834 0.9834 0.9834 0.9834 0.9834 0.9834 0.9834 0.9834 0.9834 0.9834 0.9834 0.9834 
0.9834 0.9834 0.9834 0.9834 0.9834 0.9834 0.9834 0.9834 0.9834 0.9834 0.9834 0.9834 0.9834 0.9834 0.9834 0.9834 0.9834 0.9834 0.9834 0.9834 0.9834 
0.9834 0.9834 0.9834 0.9834 0.9834 0.9834 0.9834 0.9834 0.9834 0.9834 0.9834 0.9834 0.9834 0.9834 0.9834 0.9834 0.9834 0.9834 0.9834 0.9834 0.9834 
0.9834 0.9834 0.9834 0.9834 0.9834 0.9834 0.9834 0.9834 0.9834 0.9834 0.9834 0.9834 0.9834 0.9834 0.9834 0.9834 0.9834 0.9834 0.9834 0.9834 0.9834 
0.9834 0.9834 0.9834 0.9834 0.9834 0.9834 0.9834 0.9834 0.9834 0.9834 0.9834 0.9834 0.9834 0.9834 0.9834 0.9834 0.9834 0.9834 0.9834 0.9834 0.9834 
0.9834 0.9834 0.9834 0.9834 0.9834 0.9834 0.9834 0.9834 0.9834 0.9834 0.9834 0.9834 0.9834 0.9834 0.9834 0.9834 0.9834 0.9834 0.9834 0.9834 0.9834 
0.9834 0.9834 0.9834 0.9834 0.9834 0.9834 0.9834 0.9834 0.9834 0.9834 0.9834 0.9834 0.9834 0.9834 0.9834 0.9834 0.9834 0.9834 0.9834 0.9834 0.9834 
0.9834 0.9834 0.9834 0.9834 0.9834 0.9834 0.9834 0.9834 0.9834 0.9834 0.9834 0.9834 0.9834 0.9834 0.9834 0.9834 0.9834 0.9834 0.9834 0.9834 0.9834 
0.9834 0.9834 0.9834 0.9834 0.9834 0.9834 0.9834 0.9834 0.9834 0.9834 0.9834 0.9834 0.9834 0.9834 0.9834 0.9834 0.9834 0.9834 0.9834 0.9834 0.9834 
0.9834 0.9834 0.9834 0.9834 0.9834 0.9834 0.9834 0.9834 0.9834 0.9834 0.9834 0.9834 0.9834 0.9834 0.9834 0.9834 0.9834 0.9834 0.9834 0.9834 0.9834 
0.9834 0.9834 0.9834 0.9834 0.9834 0.9834 0.9834 0.9834 0.9834 0.9834 0.9834 0.9834 0.9834 0.9834 0.9834 0.9834 0.9834 0.9834 0.9834 0.9834 0.9834 
0.9834 0.9834 0.9834 0.9834 0.9834 0.9834 0.9834 0.9834 0.9834 0.9834 0.9834 0.9834 0.9834 0.9834 0.9834 0.9834 0.9834 0.9834 0.9834 0.9834 0.9834 
0.9834 0.9834 0.9834 0.9834 0.9834 0.9834 0.9834 0.9834 0.9834 0.9834 0.9834 0.9834 0.9834 0.9834 0.9834 0.9834 0.9834 0.9834 0.9834 0.9834 0.9834 
0.9834 0.9834 0.9834 0.9834 0.9834 0.9834 0.9834 0.9834 0.9834 0.9834 0.9834 0.9834 0.9834 0.9834 0.9834 0.9834 0.9834 0.9834 0.9834 0.9834 0.9834 
0.9834 0.9834 0.9834 0.9834 0.9834 0.9834 0.9834 0.9834 0.9834 0.9834 0.9834 0.9834 0.9834 0.9834 0.9834 0.9834 0.9834 0.9834 0.9834 0.9834 0.9834 
0.9834 0.9834 0.9834 0.9834 0.9834 0.9834 0.9834 0.9834 0.9834 0.9834 0.9834 0.9834 0.9834 0.9834 0.9834 0.9834 0.9834 0.9834 0.9834 0.9834 0.9834 
0.9834 0.9834 0.9834 0.9834 0.9834 0.9834 0.9834 0.9834 0.9834 0.9834 0.9834 0.9834 0.9834 0.9834 0.9834 0.9834 0.9834 0.9834 0.9834 0.9834 0.9834 
</DataArray>
<DataArray Name="ne" NumberOfComponents="1" format="ascii" type="Float64">
1 1 1 1 1 1 1 1 1 1 1 1 1 1 1 1 1 1 1 1 1 
1 1 1 1 1 1 1 1 1 1 1 1 1 1 1 1 1 1 1 1 1 
1 1 1 1 1 1 1 1 1 1 1 1 1 1 1 1 1 1 1 1 1 
1 1 1 1 1 1 1 1 1 1 1 1 1 1 1 1 1 1 1 1 1 
1 1 1 1 1 1 1 1 1 1 1 1 1 1 1 1 1 1 1 1 1 
1 1 1 1 1 1 1 1 1 1 1 1 1 1 1 1 1 1 1 1 1 
1 1 1 1 1 1 1 1 1 1 1 1 1 1 1 1 1 1 1 1 1 
1 1 1 1 1 1 1 1 1 1 1 1 1 1 1 1 1 1 1 1 1 
1 1 1 1 1 1 1 1 1 1 1 1 1 1 1 1 1 1 1 1 1 
1 1 1 1 1 1 1 1 1 1 1 1 1 1 1 1 1 1 1 1 1 
1 1 1 1 1 1 1 1 1 1 1 1 1 1 1 1 1 1 1 1 1 
1 1 1 1 1 1 1 1 1 1 1 1 1 1 1 1 1 1 1 1 1 
1 1 1 1 1 1 1 1 1 1 1 1 1 1 1 1 1 1 1 1 1 
1 1 1 1 1 1 1 1 1 1 1 1 1 1 1 1 1 1 1 1 1 
1 1 1 1 1 1 1 1 1 1 1 1 1 1 1 1 1 1 1 1 1 
1 1 1 1 1 1 1 1 1 1 1 1 1 1 1 1 1 1 1 1 1 
1 1 1 1 1 1 1 1 1 1 1 1 1 1 1 1 1 1 1 1 1 
1 1 1 1 1 1 1 1 1 1 1 1 1 1 1 1 1 1 1 1 1 
1 1 1 1 1 1 1 1 1 1 1 1 1 1 1 1 1 1 1 1 1 
1 1 1 1 1 1 1 1 1 1 1 1 1 1 1 1 1 1 1 1 1 
1 1 1 1 1 1 1 1 1 1 1 1 1 1 1 1 1 1 1 1 1 
1 1 1 1 1 1 1 1 1 1 1 1 1 1 1 1 1 1 1 1 1 
1 1 1 1 1 1 1 1 1 1 1 1 1 1 1 1 1 1 1 1 1 
1 1 1 1 1 1 1 1 1 1 1 1 1 1 1 1 1 1 1 1 1 
1 1 1 1 1 1 1 1 1 1 1 1 1 1 1 1 1 1 1 1 1 
1 1 1 1 1 1 1 1 1 1 1 1 1 1 1 1 1 1 1 1 1 
1 1 1 1 1 1 1 1 1 1 1 1 1 1 1 1 1 1 1 1 1 
1 1 1 1 1 1 1 1 1 1 1 1 1 1 1 1 1 1 1 1 1 
1 1 1 1 1 1 1 1 1 1 1 1 1 1 1 1 1 1 1 1 1 
1 1 1 1 1 1 1 1 1 1 1 1 1 1 1 1 1 1 1 1 1 
1 1 1 1 1 1 1 1 1 1 1 1 1 1 1 1 1 1 1 1 1 
1 1 1 1 1 1 1 1 1 1 1 1 1 1 1 1 1 1 1 1 1 
1 1 1 1 1 1 1 1 1 1 1 1 1 1 1 1 1 1 1 1 1 
1 1 1 1 1 1 1 1 1 1 1 1 1 1 1 1 1 1 1 1 1 
1 1 1 1 1 1 1 1 1 1 1 1 1 1 1 1 1 1 1 1 1 
1 1 1 1 1 1 1 1 1 1 1 1 1 1 1 1 1 1 1 1 1 
1 1 1 1 1 1 1 1 1 1 1 1 1 1 1 1 1 1 1 1 1 
1 1 1 1 1 1 1 1 1 1 1 1 1 1 1 1 1 1 1 1 1 
1 1 1 1 1 1 1 1 1 1 1 1 1 1 1 1 1 1 1 1 1 
1 1 1 1 1 1 1 1 1 1 1 1 1 1 1 1 1 1 1 1 1 
1 1 1 1 1 1 1 1 1 1 1 1 1 1 1 1 1 1 1 1 1 
</DataArray>
</PointData>
</Piece>
</ImageData>
</VTKFile>
