<VTKFile type="ImageData">
<ImageData Origin="0 -10 0" Spacing="0.5 0.5 1" WholeExtent="0 20 0 40 0 0">
<Piece Extent="0 20 0 40 0 0">
<PointData>
<DataArray Name="f" NumberOfComponents="1" format="ascii" type="Float64">
2.861e-06 2.861e-06 2.861e-06 2.861e-06 2.861e-06 2.861e-06 2.861e-06 2.861e-06 2.861e-06 2.861e-06 2.861e-06 2.861e-06 2.861e-06 2.861e-06 2.861e-06 2.861e-06 2.861e-06 2.861e-06 2.861e-06 2.861e-06 2.861e-06 
7.908e-06 7.908e-06 7.908e-06 7.908e-06 7.908e-06 7.908e-06 7.908e-06 7.908e-06 7.908e-06 7.908e-06 7.908e-06 7.908e-06 7.908e-06 7.908e-06 7.908e-06 7.908e-06 7.908e-06 7.908e-06 7.908e-06 7.908e-06 7.908e-06 
2.221e-05 2.221e-05 2.221e-05 2.221e-05 2.221e-05 2.221e-05 2.221e-05 2.221e-05 2.221e-05 2.221e-05 2.221e-05 2.221e-05 2.221e-05 2.221e-05 2.221e-05 2.221e-05 2.221e-05 2.221e-05 2.221e-05 2.221e-05 2.221e-05 
5.929e-05 5.929e-05 5.929e-05 5.929e-05 5.929e-05 5.929e-05 5.929e-05 5.929e-05 5.929e-05 5.929e-05 5.929e-05 5.929e-05 5.929e-05 5.929e-05 5.929e-05 5.929e-05 5.929e-05 5.929e-05 5.929e-05 5.929e-05 5.929e-05 
0.0001496 0.0001496 0.0001496 0.0001496 0.0001496 0.0001496 0.0001496 0.0001496 0.0001496 0.0001496 0.0001496 0.0001496 0.0001496 0.0001496 0.0001496 0.0001496 0.0001496 0.0001496 0.0001496 0.0001496 0.0001496 
0.0003568 0.0003568 0.0003568 0.0003568 0.0003568 0.0003568 0.0003568 0.0003568 0.0003568 0.0003568 0.0003568 0.0003568 0.0003568 0.0003568 0.0003568 0.0003568 0.0003568 0.0003568 0.0003568 0.0003568 0.0003568 
0.0008041 0.0008041 0.0008041 0.0008041 0.0008041 0.0008041 0.0008041 0.0008041 0.0008041 0.0008041 0.0008041 0.0008041 0.0008041 0.0008041 0.0008041 0.0008041 0.0008041 0.0008041 0.0008041 0.0008041 0.0008041 
0.001713 0.001713 0.001713 0.001713 0.001713 0.001713 0.001713 0.001713 0.001713 0.001713 0.001713 0.001713 0.001713 0.001713 0.001713 0.001713 0.001713 0.001713 0.001713 0.001713 0.001713 
0.003451 0.003451 0.003451 0.003451 0.003451 0.003451 0.003451 0.003451 0.003451 0.003451 0.003451 0.003451 0.003451 0.003451 0.003451 0.003451 0.003451 0.003451 0.003451 0.003451 0.003451 
0.006572 0.006572 0.006572 0.006572 0.006572 0.006572 0.006572 0.006572 0.006572 0.006572 0.006572 0.006572 0.006572 0.006572 0.006572 0.006572 0.006572 0.006572 0.006572 0.006572 0.006572 
0.01183 0.01183 0.01183 0.01183 0.01183 0.01183 0.01183 0.01183 0.01183 0.01183 0.01183 0.01183 0.01183 0.01183 0.01183 0.01183 0.01183 0.01183 0.01183 0.01183 0.01183 
0.02014 0.02014 0.02014 0.02014 0.02014 0.02014 0.02014 0.02014 0.02014 0.02014 0.02014 0.02014 0.02014 0.02014 0.02014 0.02014 0.02014 0.02014 0.02014 0.02014 0.02014 
0.03242 0.03242 0.03242 0.03242 0.03242 0.03242 0.03242 0.03242 0.03242 0.03242 0.03242 0.03242 0.03242 0.03242 0.03242 0.03242 0.03242 0.03242 0.03242 0.03242 0.03242 
0.04934 0.04934 0.04934 0.04934 0.04934 0.04934 0.04934 0.04934 0.04934 0.04934 0.04934 0.04934 0.04934 0.04934 0.04934 0.04934 0.04934 0.04934 0.04934 0.04934 0.04934 
0.07098 0.07098 0.07098 0.07098 0.07098 0.07098 0.07098 0.07098 0.07098 0.07098 0.07098 0.07098 0.07098 0.07098 0.07098 0.07098 0.07098 0.07098 0.07098 0.07098 0.07098 
0.09651 0.09651 0.09651 0.09651 0.09651 0.09651 0.09651 0.09651 0.09651 0.09651 0.09651 0.09651 0.09651 0.09651 0.09651 0.09651 0.09651 0.09651 0.09651 0.09651 0.09651 
0.124 0.124 0.124 0.124 0.124 0.124 0.124 0.124 0.124 0.124 0.124 0.124 0.124 0.124 0.124 0.124 0.124 0.124 0.124 0.124 0.124 
0.1506 0.1506 0.1506 0.1506 0.1506 0.1506 0.1506 0.1506 0.1506 0.1506 0.1506 0.1506 0.1506 0.1506 0.1506 0.1506 0.1506 0.1506 0.1506 0.1506 0.1506 
0.1728 0.1728 0.1728 0.1728 0.1728 0.1728 0.1728 0.1728 0.1728 0.1728 0.1728 0.1728 0.1728 0.1728 0.1728 0.1728 0.1728 0.1728 0.1728 0.1728 0.1728 
0.1872 0.1872 0.1872 0.1872 0.1872 0.1872 0.1872 0.1872 0.1872 0.1872 0.1872 0.1872 0.1872 0.1872 0.1872 0.1872 0.1872 0.1872 0.1872 0.1872 0.1872 
0.1916 0.1916 0.1916 0.1916 0.1916 0.1916 0.1916 0.1916 0.1916 0.1916 0.1916 0.1916 0.1916 0.1916 0.1916 0.1916 0.1916 0.1916 0.1916 0.1916 0.1916 
0.1851 0.1851 0.1851 0.1851 0.1851 0.1851 0.1851 0.1851 0.1851 0.1851 0.1851 0.1851 0.1851 0.1851 0.1851 0.1851 0.1851 0.1851 0.1851 0.1851 0.1851 
0.1687 0.1687 0.1687 0.1687 0.1687 0.1687 0.1687 0.1687 0.1687 0.1687 0.1687 0.1687 0.1687 0.1687 0.1687 0.1687 0.1687 0.1687 0.1687 0.1687 0.1687 
0.1451 0.1451 0.1451 0.1451 0.1451 0.1451 0.1451 0.1451 0.1451 0.1451 0.1451 0.1451 0.1451 0.1451 0.1451 0.1451 0.1451 0.1451 0.1451 0.1451 0.1451 
0.1177 0.1177 0.1177 0.1177 0.1177 0.1177 0.1177 0.1177 0.1177 0.1177 0.1177 0.1177 0.1177 0.1177 0.1177 0.1177 0.1177 0.1177 0.1177 0.1177 0.1177 
0.08996 0.08996 0.08996 0.08996 0.08996 0.08996 0.08996 0.08996 0.08996 0.08996 0.08996 0.08996 0.08996 0.08996 0.08996 0.08996 0.08996 0.08996 0.08996 0.08996 0.08996 
0.0648 0.0648 0.0648 0.0648 0.0648 0.0648 0.0648 0.0648 0.0648 0.0648 0.0648 0.0648 0.0648 0.0648 0.0648 0.0648 0.0648 0.0648 0.0648 0.0648 0.0648 
0.04396 0.04396 0.04396 0.04396 0.04396 0.04396 0.04396 0.04396 0.04396 0.04396 0.04396 0.04396 0.04396 0.04396 0.04396 0.04396 0.04396 0.04396 0.04396 0.04396 0.04396 
0.02807 0.02807 0.02807 0.02807 0.02807 0.02807 0.02807 0.02807 0.02807 0.02807 0.02807 0.02807 0.02807 0.02807 0.02807 0.02807 0.02807 0.02807 0.02807 0.02807 0.02807 
0.01686 0.01686 0.01686 0.01686 0.01686 0.01686 0.01686 0.01686 0.01686 0.01686 0.01686 0.01686 0.01686 0.01686 0.01686 0.01686 0.01686 0.01686 0.01686 0.01686 0.01686 
0.009524 0.009524 0.009524 0.009524 0.009524 0.009524 0.009524 0.009524 0.009524 0.009524 0.009524 0.009524 0.009524 0.009524 0.009524 0.009524 0.009524 0.009524 0.009523 0.009523 0.009524 
0.005054 0.005054 0.005054 0.005054 0.005054 0.005054 0.005054 0.005054 0.005054 0.005054 0.005054 0.005054 0.005054 0.005054 0.005054 0.005054 0.005054 0.005054 0.005054 0.005054 0.005054 
0.002518 0.002518 0.002518 0.002518 0.002518 0.002518 0.002518 0.002518 0.002518 0.002518 0.002518 0.002518 0.002518 0.002518 0.002518 0.002518 0.002518 0.002518 0.002518 0.002518 0.002518 
0.001177 0.001177 0.001177 0.001177 0.001177 0.001177 0.001177 0.001177 0.001177 0.001177 0.001177 0.001177 0.001177 0.001177 0.001177 0.001177 0.001177 0.001177 0.001177 0.001177 0.001177 
0.0005157 0.0005157 0.0005157 0.0005157 0.0005157 0.0005156 0.0005156 0.0005156 0.0005156 0.0005156 0.0005157 0.0005157 0.0005157 0.0005157 0.0005157 0.0005157 0.0005157 0.0005157 0.0005157 0.0005157 0.0005157 
0.0002116 0.0002116 0.0002116 0.0002116 0.0002116 0.0002116 0.0002116 0.0002116 0.0002116 0.0002116 0.0002116 0.0002116 0.0002116 0.0002116 0.0002116 0.0002116 0.0002116 0.0002116 0.0002116 0.0002116 0.0002116 
8.127e-05 8.127e-05 8.127e-05 8.127e-05 8.127e-05 8.127e-05 8.127e-05 8.126e-05 8.126e-05 8.126e-05 8.126e-05 8.126e-05 8.126e-05 8.126e-05 8.126e-05 8.126e-05 8.126e-05 8.126e-05 8.127e-05 8.127e-05 8.127e-05 
2.919e-05 2.919e-05 2.919e-05 2.919e-05 2.919e-05 2.919e-05 2.919e-05 2.919e-05 2.919e-05 2.919e-05 2.918e-05 2.918e-05 2.918e-05 2.918e-05 2.918e-05 2.918e-05 2.918e-05 2.918e-05 2.918e-05 2.919e-05 2.919e-05 
9.844e-06 9.844e-06 9.844e-06 9.844e-06 9.844e-06 9.844e-06 9.844e-06 9.844e-06 9.844e-06 9.844e-06 9.844e-06 9.844e-06 9.844e-06 9.844e-06 9.844e-06 9.843e-06 9.843e-06 9.843e-06 9.843e-06 9.843e-06 9.844e-06 
3.301e-06 3.301e-06 3.301e-06 3.301e-06 3.301e-06 3.301e-06 3.301e-06 3.301e-06 3.301e-06 3.301e-06 3.301e-06 3.301e-06 3.301e-06 3.301e-06 3.301e-06 3.301e-06 3.301e-06 3.301e-06 3.301e-06 3.3e-06 3.301e-06 
1.715e-06 1.715e-06 1.715e-06 1.715e-06 1.715e-06 1.715e-06 1.715e-06 1.715e-06 1.715e-06 1.715e-06 1.715e-06 1.715e-06 1.715e-06 1.715e-06 1.715e-06 1.715e-06 1.715e-06 1.715e-06 1.715e-06 1.715e-06 1.715e-06 
</DataArray>
<DataArray Name="E" NumberOfComponents="1" format="ascii" type="Float64">
-1.453 -1.453 -1.453 -1.453 -1.453 -1.453 -1.453 -1.453 -1.453 -1.453 -1.453 -1.453 -1.453 -1.453 -1.453 -1.453 -1.453 -1.453 -1.453 -1.453 -1.453 
-1.453 -1.453 -1.453 -1.453 -1.453 -1.453 -1.453 -1.453 -1.453 -1.453 -1.453 -1.453 -1.453 -1.453 -1.453 -1.453 -1.453 -1.453 -1.453 -1.453 -1.453 
-1.453 -1.453 -1.453 -1.453 -1.453 -1.453 -1.453 -1.453 -1.453 -1.453 -1.453 -1.453 -1.453 -1.453 -1.453 -1.453 -1.453 -1.453 -1.453 -1.453 -1.453 
-1.453 -1.453 -1.453 -1.453 -1.453 -1.453 -1.453 -1.453 -1.453 -1.453 -1.453 -1.453 -1.453 -1.453 -1.453 -1.453 -1.453 -1.453 -1.453 -1.453 -1.453 
-1.453 -1.453 -1.453 -1.453 -1.453 -1.453 -1.453 -1.453 -1.453 -1.453 -1.453 -1.453 -1.453 -1.453 -1.453 -1.453 -1.453 -1.453 -1.453 -1.453 -1.453 
-1.453 -1.453 -1.453 -1.453 -1.453 -1.453 -1.453 -1.453 -1.453 -1.453 -1.453 -1.453 -1.453 -1.453 -1.453 -1.453 -1.453 -1.453 -1.453 -1.453 -1.453 
-1.453 -1.453 -1.453 -1.453 -1.453 -1.453 -1.453 -1.453 -1.453 -1.453 -1.453 -1.453 -1.453 -1.453 -1.453 -1.453 -1.453 -1.453 -1.453 -1.453 -1.453 
-1.453 -1.453 -1.453 -1.453 -1.453 -1.453 -1.453 -1.453 -1.453 -1.453 -1.453 -1.453 -1.453 -1.453 -1.453 -1.453 -1.453 -1.453 -1.453 -1.453 -1.453 
-1.453 -1.453 -1.453 -1.453 -1.453 -1.453 -1.453 -1.453 -1.453 -1.453 -1.453 -1.453 -1.453 -1.453 -1.453 -1.453 -1.453 -1.453 -1.453 -1.453 -1.453 
-1.453 -1.453 -1.453 -1.453 -1.453 -1.453 -1.453 -1.453 -1.453 -1.453 -1.453 -1.453 -1.453 -1.453 -1.453 -1.453 -1.453 -1.453 -1.453 -1.453 -1.453 
-1.453 -1.453 -1.453 -1.453 -1.453 -1.453 -1.453 -1.453 -1.453 -1.453 -1.453 -1.453 -1.453 -1.453 -1.453 -1.453 -1.453 -1.453 -1.453 -1.453 -1.453 
-1.453 -1.453 -1.453 -1.453 -1.453 -1.453 -1.453 -1.453 -1.453 -1.453 -1.453 -1.453 -1.453 -1.453 -1.453 -1.453 -1.453 -1.453 -1.453 -1.453 -1.453 
-1.453 -1.453 -1.453 -1.453 -1.453 -1.453 -1.453 -1.453 -1.453 -1.453 -1.453 -1.453 -1.453 -1.453 -1.453 -1.453 -1.453 -1.453 -1.453 -1.453 -1.453 
-1.453 -1.453 -1.453 -1.453 -1.453 -1.453 -1.453 -1.453 -1.453 -1.453 -1.453 -1.453 -1.453 -1.453 -1.453 -1.453 -1.453 -1.453 -1.453 -1.453 -1.453 
-1.453 -1.453 -1.453 -1.453 -1.453 -1.453 -1.453 -1.453 -1.453 -1.453 -1.453 -1.453 -1.453 -1.453 -1.453 -1.453 -1.453 -1.453 -1.453 -1.453 -1.453 
-1.453 -1.453 -1.453 -1.453 -1.453 -1.453 -1.453 -1.453 -1.453 -1.453 -1.453 -1.453 -1.453 -1.453 -1.453 -1.453 -1.453 -1.453 -1.453 -1.453 -1.453 
-1.453 -1.453 -1.453 -1.453 -1.453 -1.453 -1.453 -1.453 -1.453 -1.453 -1.453 -1.453 -1.453 -1.453 -1.453 -1.453 -1.453 -1.453 -1.453 -1.453 -1.453 
-1.453 -1.453 -1.453 -1.453 -1.453 -1.453 -1.453 -1.453 -1.453 -1.453 -1.453 -1.453 -1.453 -1.453 -1.453 -1.453 -1.453 -1.453 -1.453 -1.453 -1.453 
-1.453 -1.453 -1.453 -1.453 -1.453 -1.453 -1.453 -1.453 -1.453 -1.453 -1.453 -1.453 -1.453 -1.453 -1.453 -1.453 -1.453 -1.453 -1.453 -1.453 -1.453 
-1.453 -1.453 -1.453 -1.453 -1.453 -1.453 -1.453 -1.453 -1.453 -1.453 -1.453 -1.453 -1.453 -1.453 -1.453 -1.453 -1.453 -1.453 -1.453 -1.453 -1.453 
-1.453 -1.453 -1.453 -1.453 -1.453 -1.453 -1.453 -1.453 -1.453 -1.453 -1.453 -1.453 -1.453 -1.453 -1.453 -1.453 -1.453 -1.453 -1.453 -1.453 -1.453 
-1.453 -1.453 -1.453 -1.453 -1.453 -1.453 -1.453 -1.453 -1.453 -1.453 -1.453 -1.453 -1.453 -1.453 -1.453 -1.453 -1.453 -1.453 -1.453 -1.453 -1.453 
-1.453 -1.453 -1.453 -1.453 -1.453 -1.453 -1.453 -1.453 -1.453 -1.453 -1.453 -1.453 -1.453 -1.453 -1.453 -1.453 -1.453 -1.453 -1.453 -1.453 -1.453 
-1.453 -1.453 -1.453 -1.453 -1.453 -1.453 -1.453 -1.453 -1.453 -1.453 -1.453 -1.453 -1.453 -1.453 -1.453 -1.453 -1.453 -1.453 -1.453 -1.453 -1.453 
-1.453 -1.453 -1.453 -1.453 -1.453 -1.453 -1.453 -1.453 -1.453 -1.453 -1.453 -1.453 -1.453 -1.453 -1.453 -1.453 -1.453 -1.453 -1.453 -1.453 -1.453 
-1.453 -1.453 -1.453 -1.453 -1.453 -1.453 -1.453 -1.453 -1.453 -1.453 -1.453 -1.453 -1.453 -1.453 -1.453 -1.453 -1.453 -1.453 -1.453 -1.453 -1.453 
-1.453 -1.453 -1.453 -1.453 -1.453 -1.453 -1.453 -1.453 -1.453 -1.453 -1.453 -1.453 -1.453 -1.453 -1.453 -1.453 -1.453 -1.453 -1.453 -1.453 -1.453 
-1.453 -1.453 -1.453 -1.453 -1.453 -1.453 -1.453 -1.453 -1.453 -1.453 -1.453 -1.453 -1.453 -1.453 -1.453 -1.453 -1.453 -1.453 -1.453 -1.453 -1.453 
-1.453 -1.453 -1.453 -1.453 -1.453 -1.453 -1.453 -1.453 -1.453 -1.453 -1.453 -1.453 -1.453 -1.453 -1.453 -1.453 -1.453 -1.453 -1.453 -1.453 -1.453 
-1.453 -1.453 -1.453 -1.453 -1.453 -1.453 -1.453 -1.453 -1.453 -1.453 -1.453 -1.453 -1.453 -1.453 -1.453 -1.453 -1.453 -1.453 -1.453 -1.453 -1.453 
-1.453 -1.453 -1.453 -1.453 -1.453 -1.453 -1.453 -1.453 -1.453 -1.453 -1.453 -1.453 -1.453 -1.453 -1.453 -1.453 -1.453 -1.453 -1.453 -1.453 -1.453 
-1.453 -1.453 -1.453 -1.453 -1.453 -1.453 -1.453 -1.453 -1.453 -1.453 -1.453 -1.453 -1.453 -1.453 -1.453 -1.453 -1.453 -1.453 -1.453 -1.453 -1.453 
-1.453 -1.453 -1.453 -1.453 -1.453 -1.453 -1.453 -1.453 -1.453 -1.453 -1.453 -1.453 -1.453 -1.453 -1.453 -1.453 -1.453 -1.453 -1.453 -1.453 -1.453 
-1.453 -1.453 -1.453 -1.453 -1.453 -1.453 -1.453 -1.453 -1.453 -1.453 -1.453 -1.453 -1.453 -1.453 -1.453 -1.453 -1.453 -1.453 -1.453 -1.453 -1.453 
-1.453 -1.453 -1.453 -1.453 -1.453 -1.453 -1.453 -1.453 -1.453 -1.453 -1.453 -1.453 -1.453 -1.453 -1.453 -1.453 -1.453 -1.453 -1.453 -1.453 -1.453 
-1.453 -1.453 -1.453 -1.453 -1.453 -1.453 -1.453 -1.453 -1.453 -1.453 -1.453 -1.453 -1.453 -1.453 -1.453 -1.453 -1.453 -1.453 -1.453 -1.453 -1.453 
-1.453 -1.453 -1.453 -1.453 -1.453 -1.453 -1.453 -1.453 -1.453 -1.453 -1.453 -1.453 -1.453 -1.453 -1.453 -1.453 -1.453 -1.453 -1.453 -1.453 -1.453 
-1.453 -1.453 -1.453 -1.453 -1.453 -1.453 -1.453 -1.453 -1.453 -1.453 -1.453 -1.453 -1.453 -1.453 -1.453 -1.453 -1.453 -1.453 -1.453 -1.453 -1.453 
-1.453 -1.453 -1.453 -1.453 -1.453 -1.453 -1.453 -1.453 -1.453 -1.453 -1.453 -1.453 -1.453 -1.453 -1.453 -1.453 -1.453 -1.453 -1.453 -1.453 -1.453 
-1.453 -1.453 -1.453 -1.453 -1.453 -1.453 -1.453 -1.453 -1.453 -1.453 -1.453 -1.453 -1.453 -1.453 -1.453 -1.453 -1.453 -1.453 -1.453 -1.453 -1.453 
-1.453 -1.453 -1.453 -1.453 -1.453 -1.453 -1.453 -1.453 -1.453 -1.453 -1.453 -1.453 -1.453 -1.453 -1.453 -1.453 -1.453 -1.453 -1.453 -1.453 -1.453 
</DataArray>
<DataArray Name="ne" NumberOfComponents="1" format="ascii" type="Float64">
1 1 1 1 1 1 1 1 1 1 1 1 1 1 1 1 1 1 1 1 1 
1 1 1 1 1 1 1 1 1 1 1 1 1 1 1 1 1 1 1 1 1 
1 1 1 1 1 1 1 1 1 1 1 1 1 1 1 1 1 1 1 1 1 
1 1 1 1 1 1 1 1 1 1 1 1 1 1 1 1 1 1 1 1 1 
1 1 1 1 1 1 1 1 1 1 1 1 1 1 1 1 1 1 1 1 1 
1 1 1 1 1 1 1 1 1 1 1 1 1 1 1 1 1 1 1 1 1 
1 1 1 1 1 1 1 1 1 1 1 1 1 1 1 1 1 1 1 1 1 
1 1 1 1 1 1 1 1 1 1 1 1 1 1 1 1 1 1 1 1 1 
1 1 1 1 1 1 1 1 1 1 1 1 1 1 1 1 1 1 1 1 1 
1 1 1 1 1 1 1 1 1 1 1 1 1 1 1 1 1 1 1 1 1 
1 1 1 1 1 1 1 1 1 1 1 1 1 1 1 1 1 1 1 1 1 
1 1 1 1 1 1 1 1 1 1 1 1 1 1 1 1 1 1 1 1 1 
1 1 1 1 1 1 1 1 1 1 1 1 1 1 1 1 1 1 1 1 1 
1 1 1 1 1 1 1 1 1 1 1 1 1 1 1 1 1 1 1 1 1 
1 1 1 1 1 1 1 1 1 1 1 1 1 1 1 1 1 1 1 1 1 
1 1 1 1 1 1 1 1 1 1 1 1 1 1 1 1 1 1 1 1 1 
1 1 1 1 1 1 1 1 1 1 1 1 1 1 1 1 1 1 1 1 1 
1 1 1 1 1 1 1 1 1 1 1 1 1 1 1 1 1 1 1 1 1 
1 1 1 1 1 1 1 1 1 1 1 1 1 1 1 1 1 1 1 1 1 
1 1 1 1 1 1 1 1 1 1 1 1 1 1 1 1 1 1 1 1 1 
1 1 1 1 1 1 1 1 1 1 1 1 1 1 1 1 1 1 1 1 1 
1 1 1 1 1 1 1 1 1 1 1 1 1 1 1 1 1 1 1 1 1 
1 1 1 1 1 1 1 1 1 1 1 1 1 1 1 1 1 1 1 1 1 
1 1 1 1 1 1 1 1 1 1 1 1 1 1 1 1 1 1 1 1 1 
1 1 1 1 1 1 1 1 1 1 1 1 1 1 1 1 1 1 1 1 1 
1 1 1 1 1 1 1 1 1 1 1 1 1 1 1 1 1 1 1 1 1 
1 1 1 1 1 1 1 1 1 1 1 1 1 1 1 1 1 1 1 1 1 
1 1 1 1 1 1 1 1 1 1 1 1 1 1 1 1 1 1 1 1 1 
1 1 1 1 1 1 1 1 1 1 1 1 1 1 1 1 1 1 1 1 1 
1 1 1 1 1 1 1 1 1 1 1 1 1 1 1 1 1 1 1 1 1 
1 1 1 1 1 1 1 1 1 1 1 1 1 1 1 1 1 1 1 1 1 
1 1 1 1 1 1 1 1 1 1 1 1 1 1 1 1 1 1 1 1 1 
1 1 1 1 1 1 1 1 1 1 1 1 1 1 1 1 1 1 1 1 1 
1 1 1 1 1 1 1 1 1 1 1 1 1 1 1 1 1 1 1 1 1 
1 1 1 1 1 1 1 1 1 1 1 1 1 1 1 1 1 1 1 1 1 
1 1 1 1 1 1 1 1 1 1 1 1 1 1 1 1 1 1 1 1 1 
1 1 1 1 1 1 1 1 1 1 1 1 1 1 1 1 1 1 1 1 1 
1 1 1 1 1 1 1 1 1 1 1 1 1 1 1 1 1 1 1 1 1 
1 1 1 1 1 1 1 1 1 1 1 1 1 1 1 1 1 1 1 1 1 
1 1 1 1 1 1 1 1 1 1 1 1 1 1 1 1 1 1 1 1 1 
1 1 1 1 1 1 1 1 1 1 1 1 1 1 1 1 1 1 1 1 1 
</DataArray>
</PointData>
</Piece>
</ImageData>
</VTKFile>
