<VTKFile type="ImageData">
<ImageData Origin="0 -10 0" Spacing="0.5 0.5 1" WholeExtent="0 20 0 40 0 0">
<Piece Extent="0 20 0 40 0 0">
<PointData>
<DataArray Name="f" NumberOfComponents="1" format="ascii" type="Float64">
0.0007233 0.0007233 0.0007233 0.0007233 0.0007233 0.0007233 0.0007233 0.0007233 0.0007233 0.0007233 0.0007233 0.0007233 0.0007233 0.0007233 0.0007233 0.0007233 0.0007233 0.0007233 0.0007233 0.0007233 0.0007233 
0.0003382 0.0003382 0.0003382 0.0003382 0.0003382 0.0003382 0.0003382 0.0003382 0.0003382 0.0003382 0.0003382 0.0003382 0.0003383 0.0003383 0.0003383 0.0003383 0.0003383 0.0003383 0.0003382 0.0003382 0.0003382 
0.0001504 0.0001504 0.0001504 0.0001504 0.0001504 0.0001504 0.0001504 0.0001504 0.0001504 0.0001504 0.0001504 0.0001504 0.0001504 0.0001504 0.0001504 0.0001504 0.0001504 0.0001504 0.0001504 0.0001504 0.0001504 
6.398e-05 6.398e-05 6.398e-05 6.398e-05 6.398e-05 6.398e-05 6.398e-05 6.398e-05 6.398e-05 6.398e-05 6.398e-05 6.398e-05 6.398e-05 6.398e-05 6.398e-05 6.398e-05 6.398e-05 6.398e-05 6.398e-05 6.398e-05 6.398e-05 
2.726e-05 2.726e-05 2.726e-05 2.726e-05 2.726e-05 2.726e-05 2.726e-05 2.726e-05 2.726e-05 2.726e-05 2.726e-05 2.726e-05 2.726e-05 2.726e-05 2.726e-05 2.726e-05 2.726e-05 2.726e-05 2.726e-05 2.726e-05 2.726e-05 
1.501e-05 1.501e-05 1.501e-05 1.501e-05 1.501e-05 1.501e-05 1.501e-05 1.501e-05 1.501e-05 1.501e-05 1.501e-05 1.501e-05 1.501e-05 1.501e-05 1.501e-05 1.501e-05 1.501e-05 1.501e-05 1.501e-05 1.501e-05 1.501e-05 
1.782e-05 1.782e-05 1.782e-05 1.782e-05 1.782e-05 1.782e-05 1.782e-05 1.782e-05 1.782e-05 1.782e-05 1.782e-05 1.782e-05 1.782e-05 1.782e-05 1.782e-05 1.782e-05 1.782e-05 1.782e-05 1.782e-05 1.782e-05 1.782e-05 
3.753e-05 3.753e-05 3.753e-05 3.753e-05 3.753e-05 3.753e-05 3.753e-05 3.753e-05 3.753e-05 3.753e-05 3.753e-05 3.753e-05 3.753e-05 3.753e-05 3.753e-05 3.753e-05 3.753e-05 3.753e-05 3.753e-05 3.753e-05 3.753e-05 
8.794e-05 8.794e-05 8.794e-05 8.794e-05 8.794e-05 8.794e-05 8.794e-05 8.794e-05 8.794e-05 8.794e-05 8.794e-05 8.794e-05 8.794e-05 8.794e-05 8.794e-05 8.794e-05 8.794e-05 8.794e-05 8.794e-05 8.794e-05 8.794e-05 
0.0002009 0.0002009 0.0002009 0.0002009 0.0002009 0.0002009 0.0002009 0.0002009 0.0002009 0.0002009 0.0002009 0.0002009 0.0002009 0.0002009 0.0002009 0.0002009 0.0002009 0.0002009 0.0002009 0.0002009 0.0002009 
0.0004384 0.0004384 0.0004384 0.0004384 0.0004384 0.0004384 0.0004384 0.0004384 0.0004384 0.0004384 0.0004384 0.0004384 0.0004384 0.0004384 0.0004384 0.0004384 0.0004384 0.0004384 0.0004384 0.0004384 0.0004384 
0.0009115 0.0009115 0.0009115 0.0009115 0.0009115 0.0009115 0.0009115 0.0009115 0.0009115 0.0009115 0.0009115 0.0009115 0.0009115 0.0009115 0.0009115 0.0009115 0.0009115 0.0009115 0.0009115 0.0009115 0.0009115 
0.001806 0.001806 0.001806 0.001806 0.001806 0.001806 0.001806 0.001806 0.001806 0.001806 0.001806 0.001806 0.001806 0.001806 0.001806 0.001806 0.001806 0.001806 0.001806 0.001806 0.001806 
0.003409 0.003409 0.003409 0.003409 0.003409 0.003409 0.003409 0.003409 0.003409 0.003409 0.003409 0.003409 0.003409 0.003409 0.003409 0.003409 0.003409 0.003409 0.003409 0.003409 0.003409 
0.006134 0.006134 0.006134 0.006134 0.006134 0.006134 0.006134 0.006134 0.006134 0.006134 0.006134 0.006134 0.006134 0.006134 0.006134 0.006134 0.006134 0.006134 0.006134 0.006134 0.006134 
0.01052 0.01052 0.01052 0.01052 0.01052 0.01052 0.01052 0.01052 0.01052 0.01052 0.01052 0.01052 0.01052 0.01052 0.01052 0.01052 0.01052 0.01052 0.01052 0.01052 0.01052 
0.0172 0.0172 0.0172 0.0172 0.0172 0.0172 0.0172 0.0172 0.0172 0.0172 0.0172 0.0172 0.0172 0.0172 0.0172 0.0172 0.0172 0.0172 0.0172 0.0172 0.0172 
0.02682 0.02682 0.02682 0.02682 0.02682 0.02682 0.02682 0.02682 0.02682 0.02682 0.02682 0.02682 0.02682 0.02682 0.02682 0.02682 0.02682 0.02682 0.02682 0.02682 0.02682 
0.03988 0.03988 0.03988 0.03988 0.03988 0.03988 0.03988 0.03988 0.03988 0.03988 0.03988 0.03988 0.03988 0.03988 0.03988 0.03988 0.03988 0.03988 0.03988 0.03988 0.03988 
0.05656 0.05656 0.05656 0.05656 0.05656 0.05656 0.05656 0.05656 0.05656 0.05656 0.05656 0.05656 0.05656 0.05656 0.05656 0.05656 0.05656 0.05656 0.05656 0.05656 0.05656 
0.07649 0.07649 0.07649 0.07649 0.07649 0.07649 0.07649 0.07649 0.07649 0.07649 0.07649 0.07649 0.07649 0.07649 0.07649 0.07649 0.07649 0.07649 0.07649 0.07649 0.07649 
0.09868 0.09869 0.09869 0.09869 0.09869 0.09868 0.09868 0.09868 0.09868 0.09868 0.09868 0.09868 0.09868 0.09868 0.09868 0.09868 0.09868 0.09868 0.09868 0.09868 0.09868 
0.1214 0.1214 0.1214 0.1214 0.1214 0.1214 0.1214 0.1214 0.1214 0.1214 0.1214 0.1214 0.1214 0.1214 0.1214 0.1214 0.1214 0.1214 0.1214 0.1214 0.1214 
0.1426 0.1426 0.1426 0.1426 0.1426 0.1426 0.1426 0.1426 0.1426 0.1426 0.1426 0.1426 0.1426 0.1426 0.1426 0.1426 0.1426 0.1426 0.1426 0.1426 0.1426 
0.1596 0.1596 0.1596 0.1596 0.1596 0.1596 0.1596 0.1596 0.1596 0.1596 0.1596 0.1596 0.1596 0.1596 0.1596 0.1596 0.1596 0.1596 0.1596 0.1596 0.1596 
0.1705 0.1705 0.1705 0.1705 0.1705 0.1705 0.1705 0.1705 0.1705 0.1705 0.1705 0.1705 0.1705 0.1705 0.1705 0.1705 0.1705 0.1705 0.1705 0.1705 0.1705 
0.1737 0.1737 0.1737 0.1737 0.1737 0.1737 0.1737 0.1737 0.1737 0.1737 0.1737 0.1737 0.1737 0.1737 0.1737 0.1737 0.1737 0.1737 0.1737 0.1737 0.1737 
0.1688 0.1688 0.1688 0.1688 0.1688 0.1688 0.1688 0.1688 0.1688 0.1688 0.1688 0.1688 0.1688 0.1688 0.1688 0.1688 0.1688 0.1688 0.1688 0.1688 0.1688 
0.1564 0.1564 0.1564 0.1564 0.1564 0.1564 0.1564 0.1564 0.1564 0.1564 0.1564 0.1564 0.1564 0.1564 0.1564 0.1564 0.1564 0.1564 0.1564 0.1564 0.1564 
0.1382 0.1382 0.1382 0.1382 0.1382 0.1382 0.1382 0.1382 0.1382 0.1382 0.1382 0.1382 0.1382 0.1382 0.1382 0.1382 0.1382 0.1382 0.1382 0.1382 0.1382 
0.1165 0.1165 0.1165 0.1165 0.1165 0.1165 0.1165 0.1165 0.1165 0.1165 0.1165 0.1165 0.1165 0.1165 0.1165 0.1165 0.1165 0.1165 0.1165 0.1165 0.1165 
0.09357 0.09357 0.09357 0.09357 0.09357 0.09357 0.09357 0.09357 0.09357 0.09357 0.09357 0.09357 0.09357 0.09357 0.09357 0.09357 0.09357 0.09357 0.09357 0.09357 0.09357 
0.07165 0.07165 0.07165 0.07165 0.07165 0.07165 0.07165 0.07165 0.07165 0.07165 0.07165 0.07165 0.07165 0.07165 0.07165 0.07165 0.07165 0.07165 0.07165 0.07165 0.07165 
0.05229 0.05229 0.05229 0.05229 0.05229 0.05229 0.05229 0.05229 0.05229 0.05229 0.05229 0.05229 0.05229 0.05229 0.05229 0.05229 0.05229 0.05229 0.05229 0.05229 0.05229 
0.03637 0.03637 0.03637 0.03637 0.03637 0.03637 0.03637 0.03637 0.03637 0.03637 0.03637 0.03637 0.03637 0.03637 0.03637 0.03637 0.03637 0.03637 0.03637 0.03637 0.03637 
0.02409 0.02409 0.02409 0.02409 0.02409 0.02409 0.02409 0.02409 0.02409 0.02409 0.02409 0.02409 0.02409 0.02409 0.02409 0.02409 0.02409 0.02409 0.02409 0.02409 0.02409 
0.0152 0.0152 0.0152 0.0152 0.0152 0.0152 0.0152 0.0152 0.0152 0.0152 0.0152 0.0152 0.0152 0.0152 0.0152 0.0152 0.0152 0.0152 0.0152 0.0152 0.0152 
0.009132 0.009132 0.009132 0.009132 0.009132 0.009132 0.009132 0.009132 0.009132 0.009132 0.009132 0.009132 0.009132 0.009132 0.009132 0.009132 0.009132 0.009132 0.009132 0.009132 0.009132 
0.005222 0.005222 0.005222 0.005222 0.005222 0.005222 0.005222 0.005222 0.005222 0.005222 0.005222 0.005222 0.005222 0.005222 0.005222 0.005222 0.005222 0.005222 0.005222 0.005222 0.005222 
0.002841 0.002841 0.002841 0.002841 0.002841 0.002841 0.002841 0.002841 0.002841 0.002841 0.002841 0.002841 0.002841 0.002841 0.002841 0.002841 0.002841 0.002841 0.002841 0.002841 0.002841 
0.00147 0.00147 0.00147 0.00147 0.00147 0.00147 0.00147 0.00147 0.00147 0.00147 0.00147 0.00147 0.00147 0.00147 0.00147 0.00147 0.00147 0.00147 0.00147 0.00147 0.00147 
</DataArray>
<DataArray Name="E" NumberOfComponents="1" format="ascii" type="Float64">
-1.745 -1.745 -1.745 -1.745 -1.745 -1.745 -1.745 -1.745 -1.745 -1.745 -1.745 -1.745 -1.745 -1.745 -1.745 -1.745 -1.745 -1.745 -1.745 -1.745 -1.745 
-1.745 -1.745 -1.745 -1.745 -1.745 -1.745 -1.745 -1.745 -1.745 -1.745 -1.745 -1.745 -1.745 -1.745 -1.745 -1.745 -1.745 -1.745 -1.745 -1.745 -1.745 
-1.745 -1.745 -1.745 -1.745 -1.745 -1.745 -1.745 -1.745 -1.745 -1.745 -1.745 -1.745 -1.745 -1.745 -1.745 -1.745 -1.745 -1.745 -1.745 -1.745 -1.745 
-1.745 -1.745 -1.745 -1.745 -1.745 -1.745 -1.745 -1.745 -1.745 -1.745 -1.745 -1.745 -1.745 -1.745 -1.745 -1.745 -1.745 -1.745 -1.745 -1.745 -1.745 
-1.745 -1.745 -1.745 -1.745 -1.745 -1.745 -1.745 -1.745 -1.745 -1.745 -1.745 -1.745 -1.745 -1.745 -1.745 -1.745 -1.745 -1.745 -1.745 -1.745 -1.745 
-1.745 -1.745 -1.745 -1.745 -1.745 -1.745 -1.745 -1.745 -1.745 -1.745 -1.745 -1.745 -1.745 -1.745 -1.745 -1.745 -1.745 -1.745 -1.745 -1.745 -1.745 
-1.745 -1.745 -1.745 -1.745 -1.745 -1.745 -1.745 -1.745 -1.745 -1.745 -1.745 -1.745 -1.745 -1.745 -1.745 -1.745 -1.745 -1.745 -1.745 -1.745 -1.745 
-1.745 -1.745 -1.745 -1.745 -1.745 -1.745 -1.745 -1.745 -1.745 -1.745 -1.745 -1.745 -1.745 -1.745 -1.745 -1.745 -1.745 -1.745 -1.745 -1.745 -1.745 
-1.745 -1.745 -1.745 -1.745 -1.745 -1.745 -1.745 -1.745 -1.745 -1.745 -1.745 -1.745 -1.745 -1.745 -1.745 -1.745 -1.745 -1.745 -1.745 -1.745 -1.745 
-1.745 -1.745 -1.745 -1.745 -1.745 -1.745 -1.745 -1.745 -1.745 -1.745 -1.745 -1.745 -1.745 -1.745 -1.745 -1.745 -1.745 -1.745 -1.745 -1.745 -1.745 
-1.745 -1.745 -1.745 -1.745 -1.745 -1.745 -1.745 -1.745 -1.745 -1.745 -1.745 -1.745 -1.745 -1.745 -1.745 -1.745 -1.745 -1.745 -1.745 -1.745 -1.745 
-1.745 -1.745 -1.745 -1.745 -1.745 -1.745 -1.745 -1.745 -1.745 -1.745 -1.745 -1.745 -1.745 -1.745 -1.745 -1.745 -1.745 -1.745 -1.745 -1.745 -1.745 
-1.745 -1.745 -1.745 -1.745 -1.745 -1.745 -1.745 -1.745 -1.745 -1.745 -1.745 -1.745 -1.745 -1.745 -1.745 -1.745 -1.745 -1.745 -1.745 -1.745 -1.745 
-1.745 -1.745 -1.745 -1.745 -1.745 -1.745 -1.745 -1.745 -1.745 -1.745 -1.745 -1.745 -1.745 -1.745 -1.745 -1.745 -1.745 -1.745 -1.745 -1.745 -1.745 
-1.745 -1.745 -1.745 -1.745 -1.745 -1.745 -1.745 -1.745 -1.745 -1.745 -1.745 -1.745 -1.745 -1.745 -1.745 -1.745 -1.745 -1.745 -1.745 -1.745 -1.745 
-1.745 -1.745 -1.745 -1.745 -1.745 -1.745 -1.745 -1.745 -1.745 -1.745 -1.745 -1.745 -1.745 -1.745 -1.745 -1.745 -1.745 -1.745 -1.745 -1.745 -1.745 
-1.745 -1.745 -1.745 -1.745 -1.745 -1.745 -1.745 -1.745 -1.745 -1.745 -1.745 -1.745 -1.745 -1.745 -1.745 -1.745 -1.745 -1.745 -1.745 -1.745 -1.745 
-1.745 -1.745 -1.745 -1.745 -1.745 -1.745 -1.745 -1.745 -1.745 -1.745 -1.745 -1.745 -1.745 -1.745 -1.745 -1.745 -1.745 -1.745 -1.745 -1.745 -1.745 
-1.745 -1.745 -1.745 -1.745 -1.745 -1.745 -1.745 -1.745 -1.745 -1.745 -1.745 -1.745 -1.745 -1.745 -1.745 -1.745 -1.745 -1.745 -1.745 -1.745 -1.745 
-1.745 -1.745 -1.745 -1.745 -1.745 -1.745 -1.745 -1.745 -1.745 -1.745 -1.745 -1.745 -1.745 -1.745 -1.745 -1.745 -1.745 -1.745 -1.745 -1.745 -1.745 
-1.745 -1.745 -1.745 -1.745 -1.745 -1.745 -1.745 -1.745 -1.745 -1.745 -1.745 -1.745 -1.745 -1.745 -1.745 -1.745 -1.745 -1.745 -1.745 -1.745 -1.745 
-1.745 -1.745 -1.745 -1.745 -1.745 -1.745 -1.745 -1.745 -1.745 -1.745 -1.745 -1.745 -1.745 -1.745 -1.745 -1.745 -1.745 -1.745 -1.745 -1.745 -1.745 
-1.745 -1.745 -1.745 -1.745 -1.745 -1.745 -1.745 -1.745 -1.745 -1.745 -1.745 -1.745 -1.745 -1.745 -1.745 -1.745 -1.745 -1.745 -1.745 -1.745 -1.745 
-1.745 -1.745 -1.745 -1.745 -1.745 -1.745 -1.745 -1.745 -1.745 -1.745 -1.745 -1.745 -1.745 -1.745 -1.745 -1.745 -1.745 -1.745 -1.745 -1.745 -1.745 
-1.745 -1.745 -1.745 -1.745 -1.745 -1.745 -1.745 -1.745 -1.745 -1.745 -1.745 -1.745 -1.745 -1.745 -1.745 -1.745 -1.745 -1.745 -1.745 -1.745 -1.745 
-1.745 -1.745 -1.745 -1.745 -1.745 -1.745 -1.745 -1.745 -1.745 -1.745 -1.745 -1.745 -1.745 -1.745 -1.745 -1.745 -1.745 -1.745 -1.745 -1.745 -1.745 
-1.745 -1.745 -1.745 -1.745 -1.745 -1.745 -1.745 -1.745 -1.745 -1.745 -1.745 -1.745 -1.745 -1.745 -1.745 -1.745 -1.745 -1.745 -1.745 -1.745 -1.745 
-1.745 -1.745 -1.745 -1.745 -1.745 -1.745 -1.745 -1.745 -1.745 -1.745 -1.745 -1.745 -1.745 -1.745 -1.745 -1.745 -1.745 -1.745 -1.745 -1.745 -1.745 
-1.745 -1.745 -1.745 -1.745 -1.745 -1.745 -1.745 -1.745 -1.745 -1.745 -1.745 -1.745 -1.745 -1.745 -1.745 -1.745 -1.745 -1.745 -1.745 -1.745 -1.745 
-1.745 -1.745 -1.745 -1.745 -1.745 -1.745 -1.745 -1.745 -1.745 -1.745 -1.745 -1.745 -1.745 -1.745 -1.745 -1.745 -1.745 -1.745 -1.745 -1.745 -1.745 
-1.745 -1.745 -1.745 -1.745 -1.745 -1.745 -1.745 -1.745 -1.745 -1.745 -1.745 -1.745 -1.745 -1.745 -1.745 -1.745 -1.745 -1.745 -1.745 -1.745 -1.745 
-1.745 -1.745 -1.745 -1.745 -1.745 -1.745 -1.745 -1.745 -1.745 -1.745 -1.745 -1.745 -1.745 -1.745 -1.745 -1.745 -1.745 -1.745 -1.745 -1.745 -1.745 
-1.745 -1.745 -1.745 -1.745 -1.745 -1.745 -1.745 -1.745 -1.745 -1.745 -1.745 -1.745 -1.745 -1.745 -1.745 -1.745 -1.745 -1.745 -1.745 -1.745 -1.745 
-1.745 -1.745 -1.745 -1.745 -1.745 -1.745 -1.745 -1.745 -1.745 -1.745 -1.745 -1.745 -1.745 -1.745 -1.745 -1.745 -1.745 -1.745 -1.745 -1.745 -1.745 
-1.745 -1.745 -1.745 -1.745 -1.745 -1.745 -1.745 -1.745 -1.745 -1.745 -1.745 -1.745 -1.745 -1.745 -1.745 -1.745 -1.745 -1.745 -1.745 -1.745 -1.745 
-1.745 -1.745 -1.745 -1.745 -1.745 -1.745 -1.745 -1.745 -1.745 -1.745 -1.745 -1.745 -1.745 -1.745 -1.745 -1.745 -1.745 -1.745 -1.745 -1.745 -1.745 
-1.745 -1.745 -1.745 -1.745 -1.745 -1.745 -1.745 -1.745 -1.745 -1.745 -1.745 -1.745 -1.745 -1.745 -1.745 -1.745 -1.745 -1.745 -1.745 -1.745 -1.745 
-1.745 -1.745 -1.745 -1.745 -1.745 -1.745 -1.745 -1.745 -1.745 -1.745 -1.745 -1.745 -1.745 -1.745 -1.745 -1.745 -1.745 -1.745 -1.745 -1.745 -1.745 
-1.745 -1.745 -1.745 -1.745 -1.745 -1.745 -1.745 -1.745 -1.745 -1.745 -1.745 -1.745 -1.745 -1.745 -1.745 -1.745 -1.745 -1.745 -1.745 -1.745 -1.745 
-1.745 -1.745 -1.745 -1.745 -1.745 -1.745 -1.745 -1.745 -1.745 -1.745 -1.745 -1.745 -1.745 -1.745 -1.745 -1.745 -1.745 -1.745 -1.745 -1.745 -1.745 
-1.745 -1.745 -1.745 -1.745 -1.745 -1.745 -1.745 -1.745 -1.745 -1.745 -1.745 -1.745 -1.745 -1.745 -1.745 -1.745 -1.745 -1.745 -1.745 -1.745 -1.745 
</DataArray>
<DataArray Name="ne" NumberOfComponents="1" format="ascii" type="Float64">
0.9996 0.9996 0.9996 0.9996 0.9996 0.9996 0.9996 0.9996 0.9996 0.9996 0.9996 0.9996 0.9996 0.9996 0.9996 0.9996 0.9996 0.9996 0.9996 0.9996 0.9996 
0.9996 0.9996 0.9996 0.9996 0.9996 0.9996 0.9996 0.9996 0.9996 0.9996 0.9996 0.9996 0.9996 0.9996 0.9996 0.9996 0.9996 0.9996 0.9996 0.9996 0.9996 
0.9996 0.9996 0.9996 0.9996 0.9996 0.9996 0.9996 0.9996 0.9996 0.9996 0.9996 0.9996 0.9996 0.9996 0.9996 0.9996 0.9996 0.9996 0.9996 0.9996 0.9996 
0.9996 0.9996 0.9996 0.9996 0.9996 0.9996 0.9996 0.9996 0.9996 0.9996 0.9996 0.9996 0.9996 0.9996 0.9996 0.9996 0.9996 0.9996 0.9996 0.9996 0.9996 
0.9996 0.9996 0.9996 0.9996 0.9996 0.9996 0.9996 0.9996 0.9996 0.9996 0.9996 0.9996 0.9996 0.9996 0.9996 0.9996 0.9996 0.9996 0.9996 0.9996 0.9996 
0.9996 0.9996 0.9996 0.9996 0.9996 0.9996 0.9996 0.9996 0.9996 0.9996 0.9996 0.9996 0.9996 0.9996 0.9996 0.9996 0.9996 0.9996 0.9996 0.9996 0.9996 
0.9996 0.9996 0.9996 0.9996 0.9996 0.9996 0.9996 0.9996 0.9996 0.9996 0.9996 0.9996 0.9996 0.9996 0.9996 0.9996 0.9996 0.9996 0.9996 0.9996 0.9996 
0.9996 0.9996 0.9996 0.9996 0.9996 0.9996 0.9996 0.9996 0.9996 0.9996 0.9996 0.9996 0.9996 0.9996 0.9996 0.9996 0.9996 0.9996 0.9996 0.9996 0.9996 
0.9996 0.9996 0.9996 0.9996 0.9996 0.9996 0.9996 0.9996 0.9996 0.9996 0.9996 0.9996 0.9996 0.9996 0.9996 0.9996 0.9996 0.9996 0.9996 0.9996 0.9996 
0.9996 0.9996 0.9996 0.9996 0.9996 0.9996 0.9996 0.9996 0.9996 0.9996 0.9996 0.9996 0.9996 0.9996 0.9996 0.9996 0.9996 0.9996 0.9996 0.9996 0.9996 
0.9996 0.9996 0.9996 0.9996 0.9996 0.9996 0.9996 0.9996 0.9996 0.9996 0.9996 0.9996 0.9996 0.9996 0.9996 0.9996 0.9996 0.9996 0.9996 0.9996 0.9996 
0.9996 0.9996 0.9996 0.9996 0.9996 0.9996 0.9996 0.9996 0.9996 0.9996 0.9996 0.9996 0.9996 0.9996 0.9996 0.9996 0.9996 0.9996 0.9996 0.9996 0.9996 
0.9996 0.9996 0.9996 0.9996 0.9996 0.9996 0.9996 0.9996 0.9996 0.9996 0.9996 0.9996 0.9996 0.9996 0.9996 0.9996 0.9996 0.9996 0.9996 0.9996 0.9996 
0.9996 0.9996 0.9996 0.9996 0.9996 0.9996 0.9996 0.9996 0.9996 0.9996 0.9996 0.9996 0.9996 0.9996 0.9996 0.9996 0.9996 0.9996 0.9996 0.9996 0.9996 
0.9996 0.9996 0.9996 0.9996 0.9996 0.9996 0.9996 0.9996 0.9996 0.9996 0.9996 0.9996 0.9996 0.9996 0.9996 0.9996 0.9996 0.9996 0.9996 0.9996 0.9996 
0.9996 0.9996 0.9996 0.9996 0.9996 0.9996 0.9996 0.9996 0.9996 0.9996 0.9996 0.9996 0.9996 0.9996 0.9996 0.9996 0.9996 0.9996 0.9996 0.9996 0.9996 
0.9996 0.9996 0.9996 0.9996 0.9996 0.9996 0.9996 0.9996 0.9996 0.9996 0.9996 0.9996 0.9996 0.9996 0.9996 0.9996 0.9996 0.9996 0.9996 0.9996 0.9996 
0.9996 0.9996 0.9996 0.9996 0.9996 0.9996 0.9996 0.9996 0.9996 0.9996 0.9996 0.9996 0.9996 0.9996 0.9996 0.9996 0.9996 0.9996 0.9996 0.9996 0.9996 
0.9996 0.9996 0.9996 0.9996 0.9996 0.9996 0.9996 0.9996 0.9996 0.9996 0.9996 0.9996 0.9996 0.9996 0.9996 0.9996 0.9996 0.9996 0.9996 0.9996 0.9996 
0.9996 0.9996 0.9996 0.9996 0.9996 0.9996 0.9996 0.9996 0.9996 0.9996 0.9996 0.9996 0.9996 0.9996 0.9996 0.9996 0.9996 0.9996 0.9996 0.9996 0.9996 
0.9996 0.9996 0.9996 0.9996 0.9996 0.9996 0.9996 0.9996 0.9996 0.9996 0.9996 0.9996 0.9996 0.9996 0.9996 0.9996 0.9996 0.9996 0.9996 0.9996 0.9996 
0.9996 0.9996 0.9996 0.9996 0.9996 0.9996 0.9996 0.9996 0.9996 0.9996 0.9996 0.9996 0.9996 0.9996 0.9996 0.9996 0.9996 0.9996 0.9996 0.9996 0.9996 
0.9996 0.9996 0.9996 0.9996 0.9996 0.9996 0.9996 0.9996 0.9996 0.9996 0.9996 0.9996 0.9996 0.9996 0.9996 0.9996 0.9996 0.9996 0.9996 0.9996 0.9996 
0.9996 0.9996 0.9996 0.9996 0.9996 0.9996 0.9996 0.9996 0.9996 0.9996 0.9996 0.9996 0.9996 0.9996 0.9996 0.9996 0.9996 0.9996 0.9996 0.9996 0.9996 
0.9996 0.9996 0.9996 0.9996 0.9996 0.9996 0.9996 0.9996 0.9996 0.9996 0.9996 0.9996 0.9996 0.9996 0.9996 0.9996 0.9996 0.9996 0.9996 0.9996 0.9996 
0.9996 0.9996 0.9996 0.9996 0.9996 0.9996 0.9996 0.9996 0.9996 0.9996 0.9996 0.9996 0.9996 0.9996 0.9996 0.9996 0.9996 0.9996 0.9996 0.9996 0.9996 
0.9996 0.9996 0.9996 0.9996 0.9996 0.9996 0.9996 0.9996 0.9996 0.9996 0.9996 0.9996 0.9996 0.9996 0.9996 0.9996 0.9996 0.9996 0.9996 0.9996 0.9996 
0.9996 0.9996 0.9996 0.9996 0.9996 0.9996 0.9996 0.9996 0.9996 0.9996 0.9996 0.9996 0.9996 0.9996 0.9996 0.9996 0.9996 0.9996 0.9996 0.9996 0.9996 
0.9996 0.9996 0.9996 0.9996 0.9996 0.9996 0.9996 0.9996 0.9996 0.9996 0.9996 0.9996 0.9996 0.9996 0.9996 0.9996 0.9996 0.9996 0.9996 0.9996 0.9996 
0.9996 0.9996 0.9996 0.9996 0.9996 0.9996 0.9996 0.9996 0.9996 0.9996 0.9996 0.9996 0.9996 0.9996 0.9996 0.9996 0.9996 0.9996 0.9996 0.9996 0.9996 
0.9996 0.9996 0.9996 0.9996 0.9996 0.9996 0.9996 0.9996 0.9996 0.9996 0.9996 0.9996 0.9996 0.9996 0.9996 0.9996 0.9996 0.9996 0.9996 0.9996 0.9996 
0.9996 0.9996 0.9996 0.9996 0.9996 0.9996 0.9996 0.9996 0.9996 0.9996 0.9996 0.9996 0.9996 0.9996 0.9996 0.9996 0.9996 0.9996 0.9996 0.9996 0.9996 
0.9996 0.9996 0.9996 0.9996 0.9996 0.9996 0.9996 0.9996 0.9996 0.9996 0.9996 0.9996 0.9996 0.9996 0.9996 0.9996 0.9996 0.9996 0.9996 0.9996 0.9996 
0.9996 0.9996 0.9996 0.9996 0.9996 0.9996 0.9996 0.9996 0.9996 0.9996 0.9996 0.9996 0.9996 0.9996 0.9996 0.9996 0.9996 0.9996 0.9996 0.9996 0.9996 
0.9996 0.9996 0.9996 0.9996 0.9996 0.9996 0.9996 0.9996 0.9996 0.9996 0.9996 0.9996 0.9996 0.9996 0.9996 0.9996 0.9996 0.9996 0.9996 0.9996 0.9996 
0.9996 0.9996 0.9996 0.9996 0.9996 0.9996 0.9996 0.9996 0.9996 0.9996 0.9996 0.9996 0.9996 0.9996 0.9996 0.9996 0.9996 0.9996 0.9996 0.9996 0.9996 
0.9996 0.9996 0.9996 0.9996 0.9996 0.9996 0.9996 0.9996 0.9996 0.9996 0.9996 0.9996 0.9996 0.9996 0.9996 0.9996 0.9996 0.9996 0.9996 0.9996 0.9996 
0.9996 0.9996 0.9996 0.9996 0.9996 0.9996 0.9996 0.9996 0.9996 0.9996 0.9996 0.9996 0.9996 0.9996 0.9996 0.9996 0.9996 0.9996 0.9996 0.9996 0.9996 
0.9996 0.9996 0.9996 0.9996 0.9996 0.9996 0.9996 0.9996 0.9996 0.9996 0.9996 0.9996 0.9996 0.9996 0.9996 0.9996 0.9996 0.9996 0.9996 0.9996 0.9996 
0.9996 0.9996 0.9996 0.9996 0.9996 0.9996 0.9996 0.9996 0.9996 0.9996 0.9996 0.9996 0.9996 0.9996 0.9996 0.9996 0.9996 0.9996 0.9996 0.9996 0.9996 
0.9996 0.9996 0.9996 0.9996 0.9996 0.9996 0.9996 0.9996 0.9996 0.9996 0.9996 0.9996 0.9996 0.9996 0.9996 0.9996 0.9996 0.9996 0.9996 0.9996 0.9996 
</DataArray>
</PointData>
</Piece>
</ImageData>
</VTKFile>
