<VTKFile type="ImageData">
<ImageData Origin="0 -10 0" Spacing="0.5 0.5 1" WholeExtent="0 20 0 40 0 0">
<Piece Extent="0 20 0 40 0 0">
<PointData>
<DataArray Name="f" NumberOfComponents="1" format="ascii" type="Float64">
3.478e-15 3.478e-15 3.478e-15 3.478e-15 3.478e-15 3.478e-15 3.478e-15 3.478e-15 3.478e-15 3.478e-15 3.478e-15 3.478e-15 3.478e-15 3.478e-15 3.478e-15 3.478e-15 3.478e-15 3.478e-15 3.478e-15 3.478e-15 3.478e-15 
1.14e-13 1.14e-13 1.14e-13 1.14e-13 1.14e-13 1.14e-13 1.14e-13 1.14e-13 1.14e-13 1.14e-13 1.14e-13 1.14e-13 1.14e-13 1.14e-13 1.14e-13 1.14e-13 1.14e-13 1.14e-13 1.14e-13 1.14e-13 1.14e-13 
2.991e-12 2.991e-12 2.991e-12 2.991e-12 2.991e-12 2.991e-12 2.991e-12 2.991e-12 2.991e-12 2.991e-12 2.991e-12 2.991e-12 2.991e-12 2.991e-12 2.991e-12 2.991e-12 2.991e-12 2.991e-12 2.991e-12 2.991e-12 2.991e-12 
6.307e-11 6.307e-11 6.307e-11 6.307e-11 6.307e-11 6.307e-11 6.307e-11 6.307e-11 6.307e-11 6.307e-11 6.307e-11 6.307e-11 6.307e-11 6.307e-11 6.307e-11 6.307e-11 6.307e-11 6.307e-11 6.307e-11 6.307e-11 6.307e-11 
1.074e-09 1.074e-09 1.074e-09 1.074e-09 1.074e-09 1.074e-09 1.074e-09 1.074e-09 1.074e-09 1.074e-09 1.074e-09 1.074e-09 1.074e-09 1.074e-09 1.074e-09 1.074e-09 1.074e-09 1.074e-09 1.074e-09 1.074e-09 1.074e-09 
1.487e-08 1.487e-08 1.487e-08 1.487e-08 1.487e-08 1.487e-08 1.487e-08 1.487e-08 1.487e-08 1.487e-08 1.487e-08 1.487e-08 1.487e-08 1.487e-08 1.487e-08 1.487e-08 1.487e-08 1.487e-08 1.487e-08 1.487e-08 1.487e-08 
1.68e-07 1.68e-07 1.68e-07 1.68e-07 1.68e-07 1.68e-07 1.68e-07 1.68e-07 1.68e-07 1.68e-07 1.68e-07 1.68e-07 1.68e-07 1.68e-07 1.68e-07 1.68e-07 1.68e-07 1.68e-07 1.68e-07 1.68e-07 1.68e-07 
1.558e-06 1.558e-06 1.558e-06 1.558e-06 1.558e-06 1.558e-06 1.558e-06 1.558e-06 1.558e-06 1.558e-06 1.558e-06 1.558e-06 1.558e-06 1.558e-06 1.558e-06 1.558e-06 1.558e-06 1.558e-06 1.558e-06 1.558e-06 1.558e-06 
1.192e-05 1.192e-05 1.192e-05 1.192e-05 1.192e-05 1.192e-05 1.192e-05 1.192e-05 1.192e-05 1.192e-05 1.192e-05 1.192e-05 1.192e-05 1.192e-05 1.192e-05 1.192e-05 1.192e-05 1.192e-05 1.192e-05 1.192e-05 1.192e-05 
7.545e-05 7.545e-05 7.545e-05 7.545e-05 7.545e-05 7.545e-05 7.545e-05 7.545e-05 7.545e-05 7.545e-05 7.545e-05 7.545e-05 7.545e-05 7.545e-05 7.545e-05 7.545e-05 7.545e-05 7.545e-05 7.545e-05 7.545e-05 7.545e-05 
0.000397 0.000397 0.000397 0.000397 0.000397 0.000397 0.000397 0.000397 0.000397 0.000397 0.000397 0.000397 0.000397 0.000397 0.000397 0.000397 0.000397 0.000397 0.000397 0.000397 0.000397 
0.00174 0.00174 0.00174 0.00174 0.00174 0.00174 0.00174 0.00174 0.00174 0.00174 0.00174 0.00174 0.00174 0.00174 0.00174 0.00174 0.00174 0.00174 0.00174 0.00174 0.00174 
0.006368 0.006368 0.006368 0.006368 0.006368 0.006368 0.006368 0.006368 0.006368 0.006368 0.006368 0.006368 0.006368 0.006368 0.006368 0.006368 0.006368 0.006368 0.006368 0.006368 0.006368 
0.01947 0.01947 0.01947 0.01947 0.01947 0.01947 0.01947 0.01947 0.01947 0.01947 0.01947 0.01947 0.01947 0.01947 0.01947 0.01947 0.01947 0.01947 0.01947 0.01947 0.01947 
0.04974 0.04974 0.04974 0.04974 0.04974 0.04974 0.04974 0.04974 0.04974 0.04974 0.04974 0.04974 0.04974 0.04974 0.04974 0.04974 0.04974 0.04974 0.04974 0.04974 0.04974 
0.1061 0.1061 0.1061 0.1061 0.1061 0.1061 0.1061 0.1061 0.1061 0.1061 0.1061 0.1061 0.1061 0.1061 0.1061 0.1061 0.1061 0.1061 0.1061 0.1061 0.1061 
0.1887 0.1887 0.1887 0.1887 0.1887 0.1887 0.1887 0.1887 0.1887 0.1887 0.1887 0.1887 0.1887 0.1887 0.1887 0.1887 0.1887 0.1887 0.1887 0.1887 0.1887 
0.2789 0.2789 0.2789 0.2789 0.2789 0.2789 0.2789 0.2789 0.2789 0.2789 0.2789 0.2789 0.2789 0.2789 0.2789 0.2789 0.2789 0.2789 0.2789 0.2789 0.2789 
0.3417 0.3417 0.3417 0.3417 0.3417 0.3417 0.3417 0.3417 0.3417 0.3417 0.3417 0.3417 0.3417 0.3417 0.3417 0.3417 0.3417 0.3417 0.3417 0.3417 0.3417 
0.3455 0.3455 0.3455 0.3455 0.3455 0.3455 0.3455 0.3455 0.3455 0.3455 0.3455 0.3455 0.3455 0.3455 0.3455 0.3455 0.3455 0.3455 0.3455 0.3455 0.3455 
0.287 0.287 0.287 0.287 0.287 0.287 0.287 0.287 0.287 0.287 0.287 0.287 0.287 0.287 0.287 0.287 0.287 0.287 0.287 0.287 0.287 
0.1949 0.1949 0.1949 0.1949 0.1949 0.1949 0.1949 0.1949 0.1949 0.1949 0.1949 0.1949 0.1949 0.1949 0.1949 0.1949 0.1949 0.1949 0.1949 0.1949 0.1949 
0.1076 0.1076 0.1076 0.1076 0.1076 0.1076 0.1076 0.1076 0.1076 0.1076 0.1076 0.1076 0.1076 0.1076 0.1076 0.1076 0.1076 0.1076 0.1076 0.1076 0.1076 
0.04808 0.04808 0.04808 0.04808 0.04808 0.04808 0.04808 0.04808 0.04808 0.04808 0.04808 0.04808 0.04808 0.04808 0.04808 0.04808 0.04808 0.04808 0.04808 0.04808 0.04808 
0.01728 0.01728 0.01728 0.01728 0.01728 0.01728 0.01728 0.01728 0.01728 0.01728 0.01728 0.01728 0.01728 0.01728 0.01728 0.01728 0.01728 0.01728 0.01728 0.01728 0.01728 
0.004974 0.004974 0.004974 0.004974 0.004974 0.004974 0.004974 0.004974 0.004974 0.004974 0.004974 0.004974 0.004974 0.004974 0.004974 0.004974 0.004974 0.004974 0.004974 0.004974 0.004974 
0.001141 0.001141 0.001141 0.001141 0.001141 0.001141 0.001141 0.001141 0.001141 0.001141 0.001141 0.001141 0.001141 0.001141 0.001141 0.001141 0.001141 0.001141 0.001141 0.001141 0.001141 
0.0002079 0.0002079 0.0002079 0.0002079 0.0002079 0.0002079 0.0002079 0.0002079 0.0002079 0.0002079 0.0002079 0.0002079 0.0002079 0.0002079 0.0002079 0.0002079 0.0002079 0.0002079 0.0002079 0.0002079 0.0002079 
2.996e-05 2.996e-05 2.996e-05 2.996e-05 2.996e-05 2.996e-05 2.996e-05 2.996e-05 2.996e-05 2.996e-05 2.996e-05 2.996e-05 2.996e-05 2.996e-05 2.996e-05 2.996e-05 2.996e-05 2.996e-05 2.996e-05 2.996e-05 2.996e-05 
3.407e-06 3.407e-06 3.407e-06 3.407e-06 3.407e-06 3.407e-06 3.407e-06 3.407e-06 3.407e-06 3.407e-06 3.407e-06 3.407e-06 3.407e-06 3.407e-06 3.407e-06 3.407e-06 3.407e-06 3.407e-06 3.407e-06 3.407e-06 3.407e-06 
3.048e-07 3.048e-07 3.048e-07 3.048e-07 3.048e-07 3.048e-07 3.048e-07 3.048e-07 3.048e-07 3.048e-07 3.048e-07 3.048e-07 3.048e-07 3.048e-07 3.048e-07 3.048e-07 3.048e-07 3.048e-07 3.048e-07 3.048e-07 3.048e-07 
2.141e-08 2.141e-08 2.141e-08 2.141e-08 2.141e-08 2.141e-08 2.141e-08 2.141e-08 2.141e-08 2.141e-08 2.141e-08 2.141e-08 2.141e-08 2.141e-08 2.141e-08 2.141e-08 2.141e-08 2.141e-08 2.141e-08 2.141e-08 2.141e-08 
1.179e-09 1.179e-09 1.179e-09 1.179e-09 1.179e-09 1.179e-09 1.179e-09 1.179e-09 1.179e-09 1.179e-09 1.179e-09 1.179e-09 1.179e-09 1.179e-09 1.179e-09 1.179e-09 1.179e-09 1.179e-09 1.179e-09 1.179e-09 1.179e-09 
5.084e-11 5.084e-11 5.084e-11 5.084e-11 5.084e-11 5.084e-11 5.084e-11 5.084e-11 5.084e-11 5.084e-11 5.084e-11 5.084e-11 5.084e-11 5.084e-11 5.084e-11 5.084e-11 5.084e-11 5.084e-11 5.084e-11 5.084e-11 5.084e-11 
1.714e-12 1.714e-12 1.714e-12 1.714e-12 1.714e-12 1.714e-12 1.714e-12 1.714e-12 1.714e-12 1.714e-12 1.714e-12 1.714e-12 1.714e-12 1.714e-12 1.714e-12 1.714e-12 1.714e-12 1.714e-12 1.714e-12 1.714e-12 1.714e-12 
4.515e-14 4.515e-14 4.515e-14 4.515e-14 4.515e-14 4.515e-14 4.515e-14 4.515e-14 4.515e-14 4.515e-14 4.515e-14 4.515e-14 4.515e-14 4.515e-14 4.515e-14 4.515e-14 4.515e-14 4.515e-14 4.515e-14 4.515e-14 4.515e-14 
9.286e-16 9.286e-16 9.286e-16 9.286e-16 9.286e-16 9.286e-16 9.286e-16 9.286e-16 9.286e-16 9.286e-16 9.286e-16 9.286e-16 9.286e-16 9.286e-16 9.286e-16 9.286e-16 9.286e-16 9.286e-16 9.286e-16 9.286e-16 9.286e-16 
1.49e-17 1.49e-17 1.49e-17 1.49e-17 1.49e-17 1.49e-17 1.49e-17 1.49e-17 1.49e-17 1.49e-17 1.49e-17 1.49e-17 1.49e-17 1.49e-17 1.49e-17 1.49e-17 1.49e-17 1.49e-17 1.49e-17 1.49e-17 1.49e-17 
2.114e-19 2.114e-19 2.114e-19 2.114e-19 2.114e-19 2.114e-19 2.114e-19 2.114e-19 2.114e-19 2.114e-19 2.114e-19 2.114e-19 2.114e-19 2.114e-19 2.114e-19 2.114e-19 2.114e-19 2.114e-19 2.114e-19 2.114e-19 2.114e-19 
1.629e-18 1.629e-18 1.629e-18 1.629e-18 1.629e-18 1.629e-18 1.629e-18 1.629e-18 1.629e-18 1.629e-18 1.629e-18 1.629e-18 1.629e-18 1.629e-18 1.629e-18 1.629e-18 1.629e-18 1.629e-18 1.629e-18 1.629e-18 1.629e-18 
8.446e-17 8.446e-17 8.446e-17 8.446e-17 8.446e-17 8.446e-17 8.446e-17 8.446e-17 8.446e-17 8.446e-17 8.446e-17 8.446e-17 8.446e-17 8.446e-17 8.446e-17 8.446e-17 8.446e-17 8.446e-17 8.446e-17 8.446e-17 8.446e-17 
</DataArray>
<DataArray Name="E" NumberOfComponents="1" format="ascii" type="Float64">
1 1 1 1 1 1 1 1 1 1 1 1 1 1 1 1 1 1 1 1 1 
1 1 1 1 1 1 1 1 1 1 1 1 1 1 1 1 1 1 1 1 1 
1 1 1 1 1 1 1 1 1 1 1 1 1 1 1 1 1 1 1 1 1 
1 1 1 1 1 1 1 1 1 1 1 1 1 1 1 1 1 1 1 1 1 
1 1 1 1 1 1 1 1 1 1 1 1 1 1 1 1 1 1 1 1 1 
1 1 1 1 1 1 1 1 1 1 1 1 1 1 1 1 1 1 1 1 1 
1 1 1 1 1 1 1 1 1 1 1 1 1 1 1 1 1 1 1 1 1 
1 1 1 1 1 1 1 1 1 1 1 1 1 1 1 1 1 1 1 1 1 
1 1 1 1 1 1 1 1 1 1 1 1 1 1 1 1 1 1 1 1 1 
1 1 1 1 1 1 1 1 1 1 1 1 1 1 1 1 1 1 1 1 1 
1 1 1 1 1 1 1 1 1 1 1 1 1 1 1 1 1 1 1 1 1 
1 1 1 1 1 1 1 1 1 1 1 1 1 1 1 1 1 1 1 1 1 
1 1 1 1 1 1 1 1 1 1 1 1 1 1 1 1 1 1 1 1 1 
1 1 1 1 1 1 1 1 1 1 1 1 1 1 1 1 1 1 1 1 1 
1 1 1 1 1 1 1 1 1 1 1 1 1 1 1 1 1 1 1 1 1 
1 1 1 1 1 1 1 1 1 1 1 1 1 1 1 1 1 1 1 1 1 
1 1 1 1 1 1 1 1 1 1 1 1 1 1 1 1 1 1 1 1 1 
1 1 1 1 1 1 1 1 1 1 1 1 1 1 1 1 1 1 1 1 1 
1 1 1 1 1 1 1 1 1 1 1 1 1 1 1 1 1 1 1 1 1 
1 1 1 1 1 1 1 1 1 1 1 1 1 1 1 1 1 1 1 1 1 
1 1 1 1 1 1 1 1 1 1 1 1 1 1 1 1 1 1 1 1 1 
1 1 1 1 1 1 1 1 1 1 1 1 1 1 1 1 1 1 1 1 1 
1 1 1 1 1 1 1 1 1 1 1 1 1 1 1 1 1 1 1 1 1 
1 1 1 1 1 1 1 1 1 1 1 1 1 1 1 1 1 1 1 1 1 
1 1 1 1 1 1 1 1 1 1 1 1 1 1 1 1 1 1 1 1 1 
1 1 1 1 1 1 1 1 1 1 1 1 1 1 1 1 1 1 1 1 1 
1 1 1 1 1 1 1 1 1 1 1 1 1 1 1 1 1 1 1 1 1 
1 1 1 1 1 1 1 1 1 1 1 1 1 1 1 1 1 1 1 1 1 
1 1 1 1 1 1 1 1 1 1 1 1 1 1 1 1 1 1 1 1 1 
1 1 1 1 1 1 1 1 1 1 1 1 1 1 1 1 1 1 1 1 1 
1 1 1 1 1 1 1 1 1 1 1 1 1 1 1 1 1 1 1 1 1 
1 1 1 1 1 1 1 1 1 1 1 1 1 1 1 1 1 1 1 1 1 
1 1 1 1 1 1 1 1 1 1 1 1 1 1 1 1 1 1 1 1 1 
1 1 1 1 1 1 1 1 1 1 1 1 1 1 1 1 1 1 1 1 1 
1 1 1 1 1 1 1 1 1 1 1 1 1 1 1 1 1 1 1 1 1 
1 1 1 1 1 1 1 1 1 1 1 1 1 1 1 1 1 1 1 1 1 
1 1 1 1 1 1 1 1 1 1 1 1 1 1 1 1 1 1 1 1 1 
1 1 1 1 1 1 1 1 1 1 1 1 1 1 1 1 1 1 1 1 1 
1 1 1 1 1 1 1 1 1 1 1 1 1 1 1 1 1 1 1 1 1 
1 1 1 1 1 1 1 1 1 1 1 1 1 1 1 1 1 1 1 1 1 
1 1 1 1 1 1 1 1 1 1 1 1 1 1 1 1 1 1 1 1 1 
</DataArray>
<DataArray Name="ne" NumberOfComponents="1" format="ascii" type="Float64">
1 1 1 1 1 1 1 1 1 1 1 1 1 1 1 1 1 1 1 1 1 
1 1 1 1 1 1 1 1 1 1 1 1 1 1 1 1 1 1 1 1 1 
1 1 1 1 1 1 1 1 1 1 1 1 1 1 1 1 1 1 1 1 1 
1 1 1 1 1 1 1 1 1 1 1 1 1 1 1 1 1 1 1 1 1 
1 1 1 1 1 1 1 1 1 1 1 1 1 1 1 1 1 1 1 1 1 
1 1 1 1 1 1 1 1 1 1 1 1 1 1 1 1 1 1 1 1 1 
1 1 1 1 1 1 1 1 1 1 1 1 1 1 1 1 1 1 1 1 1 
1 1 1 1 1 1 1 1 1 1 1 1 1 1 1 1 1 1 1 1 1 
1 1 1 1 1 1 1 1 1 1 1 1 1 1 1 1 1 1 1 1 1 
1 1 1 1 1 1 1 1 1 1 1 1 1 1 1 1 1 1 1 1 1 
1 1 1 1 1 1 1 1 1 1 1 1 1 1 1 1 1 1 1 1 1 
1 1 1 1 1 1 1 1 1 1 1 1 1 1 1 1 1 1 1 1 1 
1 1 1 1 1 1 1 1 1 1 1 1 1 1 1 1 1 1 1 1 1 
1 1 1 1 1 1 1 1 1 1 1 1 1 1 1 1 1 1 1 1 1 
1 1 1 1 1 1 1 1 1 1 1 1 1 1 1 1 1 1 1 1 1 
1 1 1 1 1 1 1 1 1 1 1 1 1 1 1 1 1 1 1 1 1 
1 1 1 1 1 1 1 1 1 1 1 1 1 1 1 1 1 1 1 1 1 
1 1 1 1 1 1 1 1 1 1 1 1 1 1 1 1 1 1 1 1 1 
1 1 1 1 1 1 1 1 1 1 1 1 1 1 1 1 1 1 1 1 1 
1 1 1 1 1 1 1 1 1 1 1 1 1 1 1 1 1 1 1 1 1 
1 1 1 1 1 1 1 1 1 1 1 1 1 1 1 1 1 1 1 1 1 
1 1 1 1 1 1 1 1 1 1 1 1 1 1 1 1 1 1 1 1 1 
1 1 1 1 1 1 1 1 1 1 1 1 1 1 1 1 1 1 1 1 1 
1 1 1 1 1 1 1 1 1 1 1 1 1 1 1 1 1 1 1 1 1 
1 1 1 1 1 1 1 1 1 1 1 1 1 1 1 1 1 1 1 1 1 
1 1 1 1 1 1 1 1 1 1 1 1 1 1 1 1 1 1 1 1 1 
1 1 1 1 1 1 1 1 1 1 1 1 1 1 1 1 1 1 1 1 1 
1 1 1 1 1 1 1 1 1 1 1 1 1 1 1 1 1 1 1 1 1 
1 1 1 1 1 1 1 1 1 1 1 1 1 1 1 1 1 1 1 1 1 
1 1 1 1 1 1 1 1 1 1 1 1 1 1 1 1 1 1 1 1 1 
1 1 1 1 1 1 1 1 1 1 1 1 1 1 1 1 1 1 1 1 1 
1 1 1 1 1 1 1 1 1 1 1 1 1 1 1 1 1 1 1 1 1 
1 1 1 1 1 1 1 1 1 1 1 1 1 1 1 1 1 1 1 1 1 
1 1 1 1 1 1 1 1 1 1 1 1 1 1 1 1 1 1 1 1 1 
1 1 1 1 1 1 1 1 1 1 1 1 1 1 1 1 1 1 1 1 1 
1 1 1 1 1 1 1 1 1 1 1 1 1 1 1 1 1 1 1 1 1 
1 1 1 1 1 1 1 1 1 1 1 1 1 1 1 1 1 1 1 1 1 
1 1 1 1 1 1 1 1 1 1 1 1 1 1 1 1 1 1 1 1 1 
1 1 1 1 1 1 1 1 1 1 1 1 1 1 1 1 1 1 1 1 1 
1 1 1 1 1 1 1 1 1 1 1 1 1 1 1 1 1 1 1 1 1 
1 1 1 1 1 1 1 1 1 1 1 1 1 1 1 1 1 1 1 1 1 
</DataArray>
</PointData>
</Piece>
</ImageData>
</VTKFile>
