<VTKFile type="ImageData">
<ImageData Origin="0 -10 0" Spacing="0.5 0.5 1" WholeExtent="0 20 0 40 0 0">
<Piece Extent="0 20 0 40 0 0">
<PointData>
<DataArray Name="f" NumberOfComponents="1" format="ascii" type="Float64">
0.0001999 0.0001999 0.0001999 0.0001999 0.0001999 0.0001999 0.0001999 0.0001999 0.0001999 0.0001999 0.0001999 0.0001999 0.0001999 0.0001999 0.0001999 0.0001999 0.0001999 0.0001999 0.0001999 0.0001999 0.0001999 
0.0005085 0.0005085 0.0005085 0.0005085 0.0005085 0.0005085 0.0005085 0.0005085 0.0005085 0.0005085 0.0005085 0.0005085 0.0005085 0.0005085 0.0005085 0.0005085 0.0005085 0.0005085 0.0005085 0.0005085 0.0005085 
0.001212 0.001212 0.001212 0.001212 0.001212 0.001212 0.001212 0.001212 0.001212 0.001212 0.001212 0.001212 0.001212 0.001212 0.001212 0.001212 0.001212 0.001212 0.001212 0.001212 0.001212 
0.002704 0.002704 0.002704 0.002704 0.002704 0.002704 0.002704 0.002704 0.002704 0.002704 0.002704 0.002704 0.002704 0.002704 0.002704 0.002704 0.002704 0.002704 0.002704 0.002704 0.002704 
0.005649 0.005649 0.005649 0.005649 0.005649 0.005649 0.005649 0.005649 0.005649 0.005649 0.005649 0.005649 0.005649 0.005649 0.005649 0.005649 0.005649 0.005649 0.005649 0.005649 0.005649 
0.01104 0.01104 0.01104 0.01104 0.01104 0.01104 0.01104 0.01104 0.01104 0.01104 0.01104 0.01104 0.01104 0.01104 0.01104 0.01104 0.01104 0.01104 0.01104 0.01104 0.01104 
0.0202 0.0202 0.0202 0.0202 0.0202 0.0202 0.0202 0.0202 0.0202 0.0202 0.0202 0.0202 0.0202 0.0202 0.0202 0.0202 0.0202 0.0202 0.0202 0.0202 0.0202 
0.03457 0.03457 0.03457 0.03457 0.03457 0.03457 0.03457 0.03457 0.03457 0.03457 0.03457 0.03457 0.03457 0.03457 0.03457 0.03457 0.03457 0.03457 0.03457 0.03457 0.03457 
0.05528 0.05528 0.05528 0.05528 0.05528 0.05528 0.05528 0.05528 0.05528 0.05528 0.05528 0.05528 0.05528 0.05528 0.05528 0.05528 0.05528 0.05528 0.05528 0.05528 0.05528 
0.08258 0.08258 0.08258 0.08258 0.08258 0.08258 0.08258 0.08258 0.08258 0.08258 0.08258 0.08258 0.08258 0.08258 0.08258 0.08258 0.08258 0.08258 0.08258 0.08258 0.08258 
0.1152 0.1152 0.1152 0.1152 0.1152 0.1152 0.1152 0.1152 0.1152 0.1152 0.1152 0.1152 0.1152 0.1152 0.1152 0.1152 0.1152 0.1152 0.1152 0.1152 0.1152 
0.1499 0.1499 0.1499 0.1499 0.1499 0.1499 0.1499 0.1499 0.1499 0.1499 0.1499 0.1499 0.1499 0.1499 0.1499 0.1499 0.1499 0.1499 0.1499 0.1499 0.1499 
0.1818 0.1818 0.1818 0.1818 0.1818 0.1818 0.1818 0.1818 0.1818 0.1818 0.1818 0.1818 0.1818 0.1818 0.1818 0.1818 0.1818 0.1818 0.1818 0.1818 0.1818 
0.2053 0.2053 0.2053 0.2053 0.2053 0.2053 0.2053 0.2053 0.2053 0.2053 0.2053 0.2053 0.2053 0.2053 0.2053 0.2053 0.2053 0.2053 0.2053 0.2053 0.2053 
0.2158 0.2158 0.2158 0.2158 0.2158 0.2158 0.2158 0.2158 0.2158 0.2158 0.2158 0.2158 0.2158 0.2158 0.2158 0.2158 0.2158 0.2158 0.2158 0.2158 0.2158 
0.2109 0.2109 0.2109 0.2109 0.2109 0.2109 0.2109 0.2109 0.2109 0.2109 0.2109 0.2109 0.2109 0.2109 0.2109 0.2109 0.2109 0.2109 0.2109 0.2109 0.2109 
0.1914 0.1914 0.1914 0.1914 0.1914 0.1914 0.1914 0.1914 0.1914 0.1914 0.1914 0.1914 0.1914 0.1914 0.1914 0.1914 0.1914 0.1914 0.1914 0.1914 0.1914 
0.1611 0.1611 0.1611 0.1611 0.1611 0.1611 0.1611 0.1611 0.1611 0.1611 0.1611 0.1611 0.1611 0.1611 0.1611 0.1611 0.1611 0.1611 0.1611 0.1611 0.1611 
0.1256 0.1256 0.1256 0.1256 0.1256 0.1256 0.1256 0.1256 0.1256 0.1256 0.1256 0.1256 0.1256 0.1256 0.1256 0.1256 0.1256 0.1256 0.1256 0.1256 0.1256 
0.09059 0.09059 0.09059 0.09059 0.09059 0.09059 0.09059 0.09059 0.09059 0.09059 0.09059 0.09059 0.09059 0.09059 0.09059 0.09059 0.09059 0.09059 0.09059 0.09059 0.09059 
0.06038 0.06038 0.06038 0.06038 0.06038 0.06038 0.06038 0.06038 0.06038 0.06039 0.06039 0.06039 0.06039 0.06039 0.06039 0.06039 0.06039 0.06039 0.06039 0.06038 0.06038 
0.03714 0.03714 0.03714 0.03714 0.03714 0.03714 0.03714 0.03714 0.03714 0.03714 0.03714 0.03714 0.03714 0.03714 0.03714 0.03714 0.03714 0.03714 0.03714 0.03714 0.03714 
0.02104 0.02104 0.02104 0.02104 0.02104 0.02104 0.02104 0.02104 0.02104 0.02104 0.02104 0.02104 0.02104 0.02104 0.02104 0.02104 0.02104 0.02104 0.02104 0.02104 0.02104 
0.01097 0.01097 0.01097 0.01097 0.01097 0.01097 0.01097 0.01097 0.01097 0.01097 0.01097 0.01097 0.01097 0.01097 0.01097 0.01097 0.01097 0.01097 0.01097 0.01097 0.01097 
0.005249 0.005249 0.005249 0.005249 0.005249 0.005249 0.005249 0.005249 0.005249 0.005249 0.005249 0.005249 0.005249 0.005249 0.005249 0.005249 0.005249 0.005249 0.00525 0.00525 0.005249 
0.002303 0.002303 0.002303 0.002303 0.002303 0.002303 0.002303 0.002303 0.002303 0.002303 0.002303 0.002303 0.002303 0.002303 0.002303 0.002303 0.002303 0.002303 0.002303 0.002303 0.002303 
0.0009246 0.0009246 0.0009246 0.0009245 0.0009245 0.0009244 0.0009244 0.0009244 0.0009244 0.0009244 0.0009244 0.0009244 0.0009244 0.0009244 0.0009245 0.0009245 0.0009245 0.0009245 0.0009245 0.0009246 0.0009246 
0.000339 0.000339 0.000339 0.000339 0.0003389 0.0003389 0.0003389 0.0003389 0.0003389 0.0003389 0.0003389 0.0003389 0.0003389 0.0003389 0.0003389 0.0003389 0.0003389 0.0003389 0.0003389 0.0003389 0.000339 
0.0001132 0.0001132 0.0001132 0.0001132 0.0001132 0.0001132 0.0001132 0.0001132 0.0001132 0.0001132 0.0001132 0.0001132 0.0001132 0.0001132 0.0001132 0.0001132 0.0001132 0.0001132 0.0001132 0.0001132 0.0001132 
3.44e-05 3.441e-05 3.441e-05 3.441e-05 3.441e-05 3.441e-05 3.44e-05 3.44e-05 3.44e-05 3.44e-05 3.44e-05 3.44e-05 3.44e-05 3.44e-05 3.44e-05 3.44e-05 3.44e-05 3.44e-05 3.44e-05 3.44e-05 3.44e-05 
9.483e-06 9.483e-06 9.483e-06 9.484e-06 9.484e-06 9.484e-06 9.484e-06 9.483e-06 9.483e-06 9.483e-06 9.482e-06 9.482e-06 9.481e-06 9.481e-06 9.481e-06 9.481e-06 9.481e-06 9.482e-06 9.482e-06 9.482e-06 9.483e-06 
2.366e-06 2.366e-06 2.366e-06 2.366e-06 2.366e-06 2.366e-06 2.366e-06 2.366e-06 2.366e-06 2.366e-06 2.366e-06 2.366e-06 2.366e-06 2.366e-06 2.366e-06 2.366e-06 2.366e-06 2.366e-06 2.366e-06 2.366e-06 2.366e-06 
5.349e-07 5.35e-07 5.35e-07 5.35e-07 5.35e-07 5.35e-07 5.351e-07 5.351e-07 5.351e-07 5.35e-07 5.35e-07 5.35e-07 5.35e-07 5.349e-07 5.349e-07 5.349e-07 5.349e-07 5.349e-07 5.349e-07 5.349e-07 5.349e-07 
1.186e-07 1.186e-07 1.186e-07 1.186e-07 1.187e-07 1.187e-07 1.187e-07 1.187e-07 1.187e-07 1.187e-07 1.187e-07 1.187e-07 1.187e-07 1.186e-07 1.186e-07 1.186e-07 1.186e-07 1.186e-07 1.186e-07 1.186e-07 1.186e-07 
6.571e-08 6.571e-08 6.571e-08 6.571e-08 6.571e-08 6.571e-08 6.571e-08 6.571e-08 6.572e-08 6.572e-08 6.572e-08 6.572e-08 6.572e-08 6.572e-08 6.571e-08 6.571e-08 6.571e-08 6.571e-08 6.571e-08 6.571e-08 6.571e-08 
1.891e-07 1.891e-07 1.891e-07 1.891e-07 1.891e-07 1.891e-07 1.891e-07 1.891e-07 1.891e-07 1.891e-07 1.891e-07 1.891e-07 1.891e-07 1.891e-07 1.891e-07 1.891e-07 1.891e-07 1.891e-07 1.891e-07 1.891e-07 1.891e-07 
7.02e-07 7.02e-07 7.02e-07 7.02e-07 7.02e-07 7.02e-07 7.02e-07 7.02e-07 7.02e-07 7.02e-07 7.02e-07 7.02e-07 7.02e-07 7.02e-07 7.02e-07 7.02e-07 7.02e-07 7.02e-07 7.02e-07 7.02e-07 7.02e-07 
2.478e-06 2.478e-06 2.478e-06 2.478e-06 2.478e-06 2.478e-06 2.478e-06 2.478e-06 2.478e-06 2.478e-06 2.478e-06 2.478e-06 2.478e-06 2.478e-06 2.478e-06 2.478e-06 2.478e-06 2.478e-06 2.478e-06 2.478e-06 2.478e-06 
8.195e-06 8.194e-06 8.194e-06 8.194e-06 8.194e-06 8.194e-06 8.194e-06 8.194e-06 8.194e-06 8.194e-06 8.194e-06 8.194e-06 8.194e-06 8.194e-06 8.194e-06 8.194e-06 8.195e-06 8.195e-06 8.195e-06 8.195e-06 8.195e-06 
2.537e-05 2.537e-05 2.537e-05 2.537e-05 2.537e-05 2.537e-05 2.537e-05 2.537e-05 2.537e-05 2.537e-05 2.537e-05 2.537e-05 2.537e-05 2.537e-05 2.537e-05 2.537e-05 2.537e-05 2.537e-05 2.537e-05 2.537e-05 2.537e-05 
7.359e-05 7.359e-05 7.359e-05 7.359e-05 7.359e-05 7.359e-05 7.359e-05 7.359e-05 7.359e-05 7.359e-05 7.359e-05 7.359e-05 7.359e-05 7.359e-05 7.359e-05 7.359e-05 7.359e-05 7.359e-05 7.359e-05 7.359e-05 7.359e-05 
</DataArray>
<DataArray Name="E" NumberOfComponents="1" format="ascii" type="Float64">
-1.383 -1.383 -1.383 -1.383 -1.383 -1.383 -1.383 -1.383 -1.383 -1.383 -1.383 -1.383 -1.383 -1.383 -1.383 -1.383 -1.383 -1.383 -1.383 -1.383 -1.383 
-1.383 -1.383 -1.383 -1.383 -1.383 -1.383 -1.383 -1.383 -1.383 -1.383 -1.383 -1.383 -1.383 -1.383 -1.383 -1.383 -1.383 -1.383 -1.383 -1.383 -1.383 
-1.383 -1.383 -1.383 -1.383 -1.383 -1.383 -1.383 -1.383 -1.383 -1.383 -1.383 -1.383 -1.383 -1.383 -1.383 -1.383 -1.383 -1.383 -1.383 -1.383 -1.383 
-1.383 -1.383 -1.383 -1.383 -1.383 -1.383 -1.383 -1.383 -1.383 -1.383 -1.383 -1.383 -1.383 -1.383 -1.383 -1.383 -1.383 -1.383 -1.383 -1.383 -1.383 
-1.383 -1.383 -1.383 -1.383 -1.383 -1.383 -1.383 -1.383 -1.383 -1.383 -1.383 -1.383 -1.383 -1.383 -1.383 -1.383 -1.383 -1.383 -1.383 -1.383 -1.383 
-1.383 -1.383 -1.383 -1.383 -1.383 -1.383 -1.383 -1.383 -1.383 -1.383 -1.383 -1.383 -1.383 -1.383 -1.383 -1.383 -1.383 -1.383 -1.383 -1.383 -1.383 
-1.383 -1.383 -1.383 -1.383 -1.383 -1.383 -1.383 -1.383 -1.383 -1.383 -1.383 -1.383 -1.383 -1.383 -1.383 -1.383 -1.383 -1.383 -1.383 -1.383 -1.383 
-1.383 -1.383 -1.383 -1.383 -1.383 -1.383 -1.383 -1.383 -1.383 -1.383 -1.383 -1.383 -1.383 -1.383 -1.383 -1.383 -1.383 -1.383 -1.383 -1.383 -1.383 
-1.383 -1.383 -1.383 -1.383 -1.383 -1.383 -1.383 -1.383 -1.383 -1.383 -1.383 -1.383 -1.383 -1.383 -1.383 -1.383 -1.383 -1.383 -1.383 -1.383 -1.383 
-1.383 -1.383 -1.383 -1.383 -1.383 -1.383 -1.383 -1.383 -1.383 -1.383 -1.383 -1.383 -1.383 -1.383 -1.383 -1.383 -1.383 -1.383 -1.383 -1.383 -1.383 
-1.383 -1.383 -1.383 -1.383 -1.383 -1.383 -1.383 -1.383 -1.383 -1.383 -1.383 -1.383 -1.383 -1.383 -1.383 -1.383 -1.383 -1.383 -1.383 -1.383 -1.383 
-1.383 -1.383 -1.383 -1.383 -1.383 -1.383 -1.383 -1.383 -1.383 -1.383 -1.383 -1.383 -1.383 -1.383 -1.383 -1.383 -1.383 -1.383 -1.383 -1.383 -1.383 
-1.383 -1.383 -1.383 -1.383 -1.383 -1.383 -1.383 -1.383 -1.383 -1.383 -1.383 -1.383 -1.383 -1.383 -1.383 -1.383 -1.383 -1.383 -1.383 -1.383 -1.383 
-1.383 -1.383 -1.383 -1.383 -1.383 -1.383 -1.383 -1.383 -1.383 -1.383 -1.383 -1.383 -1.383 -1.383 -1.383 -1.383 -1.383 -1.383 -1.383 -1.383 -1.383 
-1.383 -1.383 -1.383 -1.383 -1.383 -1.383 -1.383 -1.383 -1.383 -1.383 -1.383 -1.383 -1.383 -1.383 -1.383 -1.383 -1.383 -1.383 -1.383 -1.383 -1.383 
-1.383 -1.383 -1.383 -1.383 -1.383 -1.383 -1.383 -1.383 -1.383 -1.383 -1.383 -1.383 -1.383 -1.383 -1.383 -1.383 -1.383 -1.383 -1.383 -1.383 -1.383 
-1.383 -1.383 -1.383 -1.383 -1.383 -1.383 -1.383 -1.383 -1.383 -1.383 -1.383 -1.383 -1.383 -1.383 -1.383 -1.383 -1.383 -1.383 -1.383 -1.383 -1.383 
-1.383 -1.383 -1.383 -1.383 -1.383 -1.383 -1.383 -1.383 -1.383 -1.383 -1.383 -1.383 -1.383 -1.383 -1.383 -1.383 -1.383 -1.383 -1.383 -1.383 -1.383 
-1.383 -1.383 -1.383 -1.383 -1.383 -1.383 -1.383 -1.383 -1.383 -1.383 -1.383 -1.383 -1.383 -1.383 -1.383 -1.383 -1.383 -1.383 -1.383 -1.383 -1.383 
-1.383 -1.383 -1.383 -1.383 -1.383 -1.383 -1.383 -1.383 -1.383 -1.383 -1.383 -1.383 -1.383 -1.383 -1.383 -1.383 -1.383 -1.383 -1.383 -1.383 -1.383 
-1.383 -1.383 -1.383 -1.383 -1.383 -1.383 -1.383 -1.383 -1.383 -1.383 -1.383 -1.383 -1.383 -1.383 -1.383 -1.383 -1.383 -1.383 -1.383 -1.383 -1.383 
-1.383 -1.383 -1.383 -1.383 -1.383 -1.383 -1.383 -1.383 -1.383 -1.383 -1.383 -1.383 -1.383 -1.383 -1.383 -1.383 -1.383 -1.383 -1.383 -1.383 -1.383 
-1.383 -1.383 -1.383 -1.383 -1.383 -1.383 -1.383 -1.383 -1.383 -1.383 -1.383 -1.383 -1.383 -1.383 -1.383 -1.383 -1.383 -1.383 -1.383 -1.383 -1.383 
-1.383 -1.383 -1.383 -1.383 -1.383 -1.383 -1.383 -1.383 -1.383 -1.383 -1.383 -1.383 -1.383 -1.383 -1.383 -1.383 -1.383 -1.383 -1.383 -1.383 -1.383 
-1.383 -1.383 -1.383 -1.383 -1.383 -1.383 -1.383 -1.383 -1.383 -1.383 -1.383 -1.383 -1.383 -1.383 -1.383 -1.383 -1.383 -1.383 -1.383 -1.383 -1.383 
-1.383 -1.383 -1.383 -1.383 -1.383 -1.383 -1.383 -1.383 -1.383 -1.383 -1.383 -1.383 -1.383 -1.383 -1.383 -1.383 -1.383 -1.383 -1.383 -1.383 -1.383 
-1.383 -1.383 -1.383 -1.383 -1.383 -1.383 -1.383 -1.383 -1.383 -1.383 -1.383 -1.383 -1.383 -1.383 -1.383 -1.383 -1.383 -1.383 -1.383 -1.383 -1.383 
-1.383 -1.383 -1.383 -1.383 -1.383 -1.383 -1.383 -1.383 -1.383 -1.383 -1.383 -1.383 -1.383 -1.383 -1.383 -1.383 -1.383 -1.383 -1.383 -1.383 -1.383 
-1.383 -1.383 -1.383 -1.383 -1.383 -1.383 -1.383 -1.383 -1.383 -1.383 -1.383 -1.383 -1.383 -1.383 -1.383 -1.383 -1.383 -1.383 -1.383 -1.383 -1.383 
-1.383 -1.383 -1.383 -1.383 -1.383 -1.383 -1.383 -1.383 -1.383 -1.383 -1.383 -1.383 -1.383 -1.383 -1.383 -1.383 -1.383 -1.383 -1.383 -1.383 -1.383 
-1.383 -1.383 -1.383 -1.383 -1.383 -1.383 -1.383 -1.383 -1.383 -1.383 -1.383 -1.383 -1.383 -1.383 -1.383 -1.383 -1.383 -1.383 -1.383 -1.383 -1.383 
-1.383 -1.383 -1.383 -1.383 -1.383 -1.383 -1.383 -1.383 -1.383 -1.383 -1.383 -1.383 -1.383 -1.383 -1.383 -1.383 -1.383 -1.383 -1.383 -1.383 -1.383 
-1.383 -1.383 -1.383 -1.383 -1.383 -1.383 -1.383 -1.383 -1.383 -1.383 -1.383 -1.383 -1.383 -1.383 -1.383 -1.383 -1.383 -1.383 -1.383 -1.383 -1.383 
-1.383 -1.383 -1.383 -1.383 -1.383 -1.383 -1.383 -1.383 -1.383 -1.383 -1.383 -1.383 -1.383 -1.383 -1.383 -1.383 -1.383 -1.383 -1.383 -1.383 -1.383 
-1.383 -1.383 -1.383 -1.383 -1.383 -1.383 -1.383 -1.383 -1.383 -1.383 -1.383 -1.383 -1.383 -1.383 -1.383 -1.383 -1.383 -1.383 -1.383 -1.383 -1.383 
-1.383 -1.383 -1.383 -1.383 -1.383 -1.383 -1.383 -1.383 -1.383 -1.383 -1.383 -1.383 -1.383 -1.383 -1.383 -1.383 -1.383 -1.383 -1.383 -1.383 -1.383 
-1.383 -1.383 -1.383 -1.383 -1.383 -1.383 -1.383 -1.383 -1.383 -1.383 -1.383 -1.383 -1.383 -1.383 -1.383 -1.383 -1.383 -1.383 -1.383 -1.383 -1.383 
-1.383 -1.383 -1.383 -1.383 -1.383 -1.383 -1.383 -1.383 -1.383 -1.383 -1.383 -1.383 -1.383 -1.383 -1.383 -1.383 -1.383 -1.383 -1.383 -1.383 -1.383 
-1.383 -1.383 -1.383 -1.383 -1.383 -1.383 -1.383 -1.383 -1.383 -1.383 -1.383 -1.383 -1.383 -1.383 -1.383 -1.383 -1.383 -1.383 -1.383 -1.383 -1.383 
-1.383 -1.383 -1.383 -1.383 -1.383 -1.383 -1.383 -1.383 -1.383 -1.383 -1.383 -1.383 -1.383 -1.383 -1.383 -1.383 -1.383 -1.383 -1.383 -1.383 -1.383 
-1.383 -1.383 -1.383 -1.383 -1.383 -1.383 -1.383 -1.383 -1.383 -1.383 -1.383 -1.383 -1.383 -1.383 -1.383 -1.383 -1.383 -1.383 -1.383 -1.383 -1.383 
</DataArray>
<DataArray Name="ne" NumberOfComponents="1" format="ascii" type="Float64">
0.9999 0.9999 0.9999 0.9999 0.9999 0.9999 0.9999 0.9999 0.9999 0.9999 0.9999 0.9999 0.9999 0.9999 0.9999 0.9999 0.9999 0.9999 0.9999 0.9999 0.9999 
0.9999 0.9999 0.9999 0.9999 0.9999 0.9999 0.9999 0.9999 0.9999 0.9999 0.9999 0.9999 0.9999 0.9999 0.9999 0.9999 0.9999 0.9999 0.9999 0.9999 0.9999 
0.9999 0.9999 0.9999 0.9999 0.9999 0.9999 0.9999 0.9999 0.9999 0.9999 0.9999 0.9999 0.9999 0.9999 0.9999 0.9999 0.9999 0.9999 0.9999 0.9999 0.9999 
0.9999 0.9999 0.9999 0.9999 0.9999 0.9999 0.9999 0.9999 0.9999 0.9999 0.9999 0.9999 0.9999 0.9999 0.9999 0.9999 0.9999 0.9999 0.9999 0.9999 0.9999 
0.9999 0.9999 0.9999 0.9999 0.9999 0.9999 0.9999 0.9999 0.9999 0.9999 0.9999 0.9999 0.9999 0.9999 0.9999 0.9999 0.9999 0.9999 0.9999 0.9999 0.9999 
0.9999 0.9999 0.9999 0.9999 0.9999 0.9999 0.9999 0.9999 0.9999 0.9999 0.9999 0.9999 0.9999 0.9999 0.9999 0.9999 0.9999 0.9999 0.9999 0.9999 0.9999 
0.9999 0.9999 0.9999 0.9999 0.9999 0.9999 0.9999 0.9999 0.9999 0.9999 0.9999 0.9999 0.9999 0.9999 0.9999 0.9999 0.9999 0.9999 0.9999 0.9999 0.9999 
0.9999 0.9999 0.9999 0.9999 0.9999 0.9999 0.9999 0.9999 0.9999 0.9999 0.9999 0.9999 0.9999 0.9999 0.9999 0.9999 0.9999 0.9999 0.9999 0.9999 0.9999 
0.9999 0.9999 0.9999 0.9999 0.9999 0.9999 0.9999 0.9999 0.9999 0.9999 0.9999 0.9999 0.9999 0.9999 0.9999 0.9999 0.9999 0.9999 0.9999 0.9999 0.9999 
0.9999 0.9999 0.9999 0.9999 0.9999 0.9999 0.9999 0.9999 0.9999 0.9999 0.9999 0.9999 0.9999 0.9999 0.9999 0.9999 0.9999 0.9999 0.9999 0.9999 0.9999 
0.9999 0.9999 0.9999 0.9999 0.9999 0.9999 0.9999 0.9999 0.9999 0.9999 0.9999 0.9999 0.9999 0.9999 0.9999 0.9999 0.9999 0.9999 0.9999 0.9999 0.9999 
0.9999 0.9999 0.9999 0.9999 0.9999 0.9999 0.9999 0.9999 0.9999 0.9999 0.9999 0.9999 0.9999 0.9999 0.9999 0.9999 0.9999 0.9999 0.9999 0.9999 0.9999 
0.9999 0.9999 0.9999 0.9999 0.9999 0.9999 0.9999 0.9999 0.9999 0.9999 0.9999 0.9999 0.9999 0.9999 0.9999 0.9999 0.9999 0.9999 0.9999 0.9999 0.9999 
0.9999 0.9999 0.9999 0.9999 0.9999 0.9999 0.9999 0.9999 0.9999 0.9999 0.9999 0.9999 0.9999 0.9999 0.9999 0.9999 0.9999 0.9999 0.9999 0.9999 0.9999 
0.9999 0.9999 0.9999 0.9999 0.9999 0.9999 0.9999 0.9999 0.9999 0.9999 0.9999 0.9999 0.9999 0.9999 0.9999 0.9999 0.9999 0.9999 0.9999 0.9999 0.9999 
0.9999 0.9999 0.9999 0.9999 0.9999 0.9999 0.9999 0.9999 0.9999 0.9999 0.9999 0.9999 0.9999 0.9999 0.9999 0.9999 0.9999 0.9999 0.9999 0.9999 0.9999 
0.9999 0.9999 0.9999 0.9999 0.9999 0.9999 0.9999 0.9999 0.9999 0.9999 0.9999 0.9999 0.9999 0.9999 0.9999 0.9999 0.9999 0.9999 0.9999 0.9999 0.9999 
0.9999 0.9999 0.9999 0.9999 0.9999 0.9999 0.9999 0.9999 0.9999 0.9999 0.9999 0.9999 0.9999 0.9999 0.9999 0.9999 0.9999 0.9999 0.9999 0.9999 0.9999 
0.9999 0.9999 0.9999 0.9999 0.9999 0.9999 0.9999 0.9999 0.9999 0.9999 0.9999 0.9999 0.9999 0.9999 0.9999 0.9999 0.9999 0.9999 0.9999 0.9999 0.9999 
0.9999 0.9999 0.9999 0.9999 0.9999 0.9999 0.9999 0.9999 0.9999 0.9999 0.9999 0.9999 0.9999 0.9999 0.9999 0.9999 0.9999 0.9999 0.9999 0.9999 0.9999 
0.9999 0.9999 0.9999 0.9999 0.9999 0.9999 0.9999 0.9999 0.9999 0.9999 0.9999 0.9999 0.9999 0.9999 0.9999 0.9999 0.9999 0.9999 0.9999 0.9999 0.9999 
0.9999 0.9999 0.9999 0.9999 0.9999 0.9999 0.9999 0.9999 0.9999 0.9999 0.9999 0.9999 0.9999 0.9999 0.9999 0.9999 0.9999 0.9999 0.9999 0.9999 0.9999 
0.9999 0.9999 0.9999 0.9999 0.9999 0.9999 0.9999 0.9999 0.9999 0.9999 0.9999 0.9999 0.9999 0.9999 0.9999 0.9999 0.9999 0.9999 0.9999 0.9999 0.9999 
0.9999 0.9999 0.9999 0.9999 0.9999 0.9999 0.9999 0.9999 0.9999 0.9999 0.9999 0.9999 0.9999 0.9999 0.9999 0.9999 0.9999 0.9999 0.9999 0.9999 0.9999 
0.9999 0.9999 0.9999 0.9999 0.9999 0.9999 0.9999 0.9999 0.9999 0.9999 0.9999 0.9999 0.9999 0.9999 0.9999 0.9999 0.9999 0.9999 0.9999 0.9999 0.9999 
0.9999 0.9999 0.9999 0.9999 0.9999 0.9999 0.9999 0.9999 0.9999 0.9999 0.9999 0.9999 0.9999 0.9999 0.9999 0.9999 0.9999 0.9999 0.9999 0.9999 0.9999 
0.9999 0.9999 0.9999 0.9999 0.9999 0.9999 0.9999 0.9999 0.9999 0.9999 0.9999 0.9999 0.9999 0.9999 0.9999 0.9999 0.9999 0.9999 0.9999 0.9999 0.9999 
0.9999 0.9999 0.9999 0.9999 0.9999 0.9999 0.9999 0.9999 0.9999 0.9999 0.9999 0.9999 0.9999 0.9999 0.9999 0.9999 0.9999 0.9999 0.9999 0.9999 0.9999 
0.9999 0.9999 0.9999 0.9999 0.9999 0.9999 0.9999 0.9999 0.9999 0.9999 0.9999 0.9999 0.9999 0.9999 0.9999 0.9999 0.9999 0.9999 0.9999 0.9999 0.9999 
0.9999 0.9999 0.9999 0.9999 0.9999 0.9999 0.9999 0.9999 0.9999 0.9999 0.9999 0.9999 0.9999 0.9999 0.9999 0.9999 0.9999 0.9999 0.9999 0.9999 0.9999 
0.9999 0.9999 0.9999 0.9999 0.9999 0.9999 0.9999 0.9999 0.9999 0.9999 0.9999 0.9999 0.9999 0.9999 0.9999 0.9999 0.9999 0.9999 0.9999 0.9999 0.9999 
0.9999 0.9999 0.9999 0.9999 0.9999 0.9999 0.9999 0.9999 0.9999 0.9999 0.9999 0.9999 0.9999 0.9999 0.9999 0.9999 0.9999 0.9999 0.9999 0.9999 0.9999 
0.9999 0.9999 0.9999 0.9999 0.9999 0.9999 0.9999 0.9999 0.9999 0.9999 0.9999 0.9999 0.9999 0.9999 0.9999 0.9999 0.9999 0.9999 0.9999 0.9999 0.9999 
0.9999 0.9999 0.9999 0.9999 0.9999 0.9999 0.9999 0.9999 0.9999 0.9999 0.9999 0.9999 0.9999 0.9999 0.9999 0.9999 0.9999 0.9999 0.9999 0.9999 0.9999 
0.9999 0.9999 0.9999 0.9999 0.9999 0.9999 0.9999 0.9999 0.9999 0.9999 0.9999 0.9999 0.9999 0.9999 0.9999 0.9999 0.9999 0.9999 0.9999 0.9999 0.9999 
0.9999 0.9999 0.9999 0.9999 0.9999 0.9999 0.9999 0.9999 0.9999 0.9999 0.9999 0.9999 0.9999 0.9999 0.9999 0.9999 0.9999 0.9999 0.9999 0.9999 0.9999 
0.9999 0.9999 0.9999 0.9999 0.9999 0.9999 0.9999 0.9999 0.9999 0.9999 0.9999 0.9999 0.9999 0.9999 0.9999 0.9999 0.9999 0.9999 0.9999 0.9999 0.9999 
0.9999 0.9999 0.9999 0.9999 0.9999 0.9999 0.9999 0.9999 0.9999 0.9999 0.9999 0.9999 0.9999 0.9999 0.9999 0.9999 0.9999 0.9999 0.9999 0.9999 0.9999 
0.9999 0.9999 0.9999 0.9999 0.9999 0.9999 0.9999 0.9999 0.9999 0.9999 0.9999 0.9999 0.9999 0.9999 0.9999 0.9999 0.9999 0.9999 0.9999 0.9999 0.9999 
0.9999 0.9999 0.9999 0.9999 0.9999 0.9999 0.9999 0.9999 0.9999 0.9999 0.9999 0.9999 0.9999 0.9999 0.9999 0.9999 0.9999 0.9999 0.9999 0.9999 0.9999 
0.9999 0.9999 0.9999 0.9999 0.9999 0.9999 0.9999 0.9999 0.9999 0.9999 0.9999 0.9999 0.9999 0.9999 0.9999 0.9999 0.9999 0.9999 0.9999 0.9999 0.9999 
</DataArray>
</PointData>
</Piece>
</ImageData>
</VTKFile>
