<VTKFile type="ImageData">
<ImageData Origin="0 -10 0" Spacing="0.5 0.5 1" WholeExtent="0 20 0 40 0 0">
<Piece Extent="0 20 0 40 0 0">
<PointData>
<DataArray Name="f" NumberOfComponents="1" format="ascii" type="Float64">
7.834e-12 7.834e-12 7.834e-12 7.834e-12 7.834e-12 7.834e-12 7.834e-12 7.834e-12 7.834e-12 7.834e-12 7.834e-12 7.834e-12 7.834e-12 7.834e-12 7.834e-12 7.834e-12 7.834e-12 7.834e-12 7.834e-12 7.834e-12 7.834e-12 
1.231e-10 1.231e-10 1.231e-10 1.231e-10 1.231e-10 1.231e-10 1.231e-10 1.231e-10 1.231e-10 1.231e-10 1.231e-10 1.231e-10 1.231e-10 1.231e-10 1.231e-10 1.231e-10 1.231e-10 1.231e-10 1.231e-10 1.231e-10 1.231e-10 
1.607e-09 1.607e-09 1.607e-09 1.607e-09 1.607e-09 1.607e-09 1.607e-09 1.607e-09 1.607e-09 1.607e-09 1.607e-09 1.607e-09 1.607e-09 1.607e-09 1.607e-09 1.607e-09 1.607e-09 1.607e-09 1.607e-09 1.607e-09 1.607e-09 
1.757e-08 1.757e-08 1.757e-08 1.757e-08 1.757e-08 1.757e-08 1.757e-08 1.757e-08 1.757e-08 1.757e-08 1.757e-08 1.757e-08 1.757e-08 1.757e-08 1.757e-08 1.757e-08 1.757e-08 1.757e-08 1.757e-08 1.757e-08 1.757e-08 
1.616e-07 1.616e-07 1.616e-07 1.616e-07 1.616e-07 1.616e-07 1.616e-07 1.616e-07 1.616e-07 1.616e-07 1.616e-07 1.616e-07 1.616e-07 1.616e-07 1.616e-07 1.616e-07 1.616e-07 1.616e-07 1.616e-07 1.616e-07 1.616e-07 
1.258e-06 1.258e-06 1.258e-06 1.258e-06 1.258e-06 1.258e-06 1.258e-06 1.258e-06 1.258e-06 1.258e-06 1.258e-06 1.258e-06 1.258e-06 1.258e-06 1.258e-06 1.258e-06 1.258e-06 1.258e-06 1.258e-06 1.258e-06 1.258e-06 
8.311e-06 8.311e-06 8.311e-06 8.311e-06 8.311e-06 8.311e-06 8.311e-06 8.311e-06 8.311e-06 8.311e-06 8.311e-06 8.311e-06 8.311e-06 8.311e-06 8.311e-06 8.311e-06 8.311e-06 8.311e-06 8.311e-06 8.311e-06 8.311e-06 
4.684e-05 4.684e-05 4.684e-05 4.684e-05 4.684e-05 4.684e-05 4.684e-05 4.684e-05 4.684e-05 4.684e-05 4.684e-05 4.684e-05 4.684e-05 4.684e-05 4.684e-05 4.684e-05 4.684e-05 4.684e-05 4.684e-05 4.684e-05 4.684e-05 
0.0002258 0.0002258 0.0002258 0.0002258 0.0002258 0.0002258 0.0002258 0.0002258 0.0002258 0.0002258 0.0002258 0.0002258 0.0002258 0.0002258 0.0002258 0.0002258 0.0002258 0.0002258 0.0002258 0.0002258 0.0002258 
0.000933 0.000933 0.000933 0.000933 0.000933 0.000933 0.000933 0.000933 0.000933 0.000933 0.000933 0.000933 0.000933 0.000933 0.000933 0.000933 0.000933 0.000933 0.000933 0.000933 0.000933 
0.00331 0.00331 0.00331 0.00331 0.00331 0.00331 0.00331 0.00331 0.00331 0.00331 0.00331 0.00331 0.00331 0.00331 0.00331 0.00331 0.00331 0.00331 0.00331 0.00331 0.00331 
0.01009 0.01009 0.01009 0.01009 0.01009 0.01009 0.01009 0.01009 0.01009 0.01009 0.01009 0.01009 0.01009 0.01009 0.01009 0.01009 0.01009 0.01009 0.01009 0.01009 0.01009 
0.02643 0.02643 0.02643 0.02643 0.02643 0.02643 0.02643 0.02643 0.02643 0.02643 0.02643 0.02643 0.02643 0.02643 0.02643 0.02643 0.02643 0.02643 0.02643 0.02643 0.02643 
0.05946 0.05946 0.05946 0.05946 0.05946 0.05946 0.05946 0.05946 0.05946 0.05946 0.05946 0.05946 0.05946 0.05946 0.05946 0.05946 0.05946 0.05946 0.05946 0.05946 0.05946 
0.1147 0.1147 0.1147 0.1147 0.1147 0.1147 0.1147 0.1147 0.1147 0.1147 0.1147 0.1147 0.1147 0.1147 0.1147 0.1147 0.1147 0.1147 0.1147 0.1147 0.1147 
0.1894 0.1894 0.1894 0.1894 0.1894 0.1894 0.1894 0.1894 0.1894 0.1894 0.1894 0.1894 0.1894 0.1894 0.1894 0.1894 0.1894 0.1894 0.1894 0.1894 0.1894 
0.2668 0.2668 0.2668 0.2668 0.2668 0.2668 0.2668 0.2668 0.2668 0.2668 0.2668 0.2668 0.2668 0.2668 0.2668 0.2668 0.2668 0.2668 0.2668 0.2668 0.2668 
0.3195 0.3195 0.3195 0.3195 0.3195 0.3195 0.3195 0.3195 0.3195 0.3195 0.3195 0.3195 0.3195 0.3195 0.3195 0.3195 0.3195 0.3195 0.3195 0.3195 0.3195 
0.324 0.324 0.324 0.324 0.324 0.324 0.324 0.324 0.324 0.324 0.324 0.324 0.324 0.324 0.324 0.324 0.324 0.324 0.324 0.324 0.324 
0.2768 0.2768 0.2768 0.2768 0.2768 0.2768 0.2768 0.2768 0.2768 0.2768 0.2768 0.2768 0.2768 0.2768 0.2768 0.2768 0.2768 0.2768 0.2768 0.2768 0.2768 
0.1981 0.1981 0.1981 0.1981 0.1981 0.1981 0.1981 0.1981 0.1981 0.1981 0.1981 0.1981 0.1981 0.1981 0.1981 0.1981 0.1981 0.1981 0.1981 0.1981 0.1981 
0.1181 0.1181 0.1181 0.1181 0.1181 0.1181 0.1181 0.1181 0.1181 0.1181 0.1181 0.1181 0.1181 0.1181 0.1181 0.1181 0.1181 0.1181 0.1181 0.1181 0.1181 
0.05823 0.05823 0.05823 0.05823 0.05823 0.05823 0.05823 0.05823 0.05823 0.05823 0.05823 0.05823 0.05823 0.05823 0.05823 0.05823 0.05823 0.05823 0.05823 0.05823 0.05823 
0.02361 0.02361 0.02361 0.02361 0.02361 0.02361 0.02361 0.02361 0.02361 0.02361 0.02361 0.02361 0.02361 0.02361 0.02361 0.02361 0.02361 0.02361 0.02361 0.02361 0.02361 
0.007817 0.007817 0.007817 0.007817 0.007817 0.007817 0.007817 0.007817 0.007817 0.007817 0.007817 0.007817 0.007817 0.007817 0.007817 0.007817 0.007817 0.007817 0.007817 0.007817 0.007817 
0.002101 0.002101 0.002101 0.002101 0.002101 0.002101 0.002101 0.002101 0.002101 0.002101 0.002101 0.002101 0.002101 0.002101 0.002101 0.002101 0.002101 0.002101 0.002101 0.002101 0.002101 
0.0004553 0.0004553 0.0004553 0.0004553 0.0004553 0.0004553 0.0004553 0.0004553 0.0004553 0.0004553 0.0004553 0.0004553 0.0004553 0.0004553 0.0004553 0.0004553 0.0004553 0.0004553 0.0004553 0.0004553 0.0004553 
7.915e-05 7.915e-05 7.915e-05 7.915e-05 7.915e-05 7.915e-05 7.915e-05 7.915e-05 7.915e-05 7.915e-05 7.915e-05 7.915e-05 7.915e-05 7.915e-05 7.915e-05 7.915e-05 7.915e-05 7.915e-05 7.915e-05 7.915e-05 7.915e-05 
1.098e-05 1.098e-05 1.098e-05 1.098e-05 1.098e-05 1.098e-05 1.098e-05 1.098e-05 1.098e-05 1.098e-05 1.098e-05 1.098e-05 1.098e-05 1.098e-05 1.098e-05 1.098e-05 1.098e-05 1.098e-05 1.098e-05 1.098e-05 1.098e-05 
1.211e-06 1.211e-06 1.211e-06 1.211e-06 1.211e-06 1.211e-06 1.211e-06 1.211e-06 1.211e-06 1.211e-06 1.211e-06 1.211e-06 1.211e-06 1.211e-06 1.211e-06 1.211e-06 1.211e-06 1.211e-06 1.211e-06 1.211e-06 1.211e-06 
1.057e-07 1.057e-07 1.057e-07 1.057e-07 1.057e-07 1.057e-07 1.057e-07 1.057e-07 1.057e-07 1.057e-07 1.057e-07 1.057e-07 1.057e-07 1.057e-07 1.057e-07 1.057e-07 1.057e-07 1.057e-07 1.057e-07 1.057e-07 1.057e-07 
7.283e-09 7.283e-09 7.283e-09 7.283e-09 7.283e-09 7.283e-09 7.283e-09 7.283e-09 7.283e-09 7.283e-09 7.283e-09 7.283e-09 7.283e-09 7.283e-09 7.283e-09 7.283e-09 7.283e-09 7.283e-09 7.283e-09 7.283e-09 7.283e-09 
3.949e-10 3.949e-10 3.949e-10 3.949e-10 3.949e-10 3.949e-10 3.949e-10 3.949e-10 3.949e-10 3.949e-10 3.949e-10 3.949e-10 3.949e-10 3.949e-10 3.949e-10 3.949e-10 3.949e-10 3.949e-10 3.949e-10 3.949e-10 3.949e-10 
1.682e-11 1.682e-11 1.682e-11 1.682e-11 1.682e-11 1.682e-11 1.682e-11 1.682e-11 1.682e-11 1.682e-11 1.682e-11 1.682e-11 1.682e-11 1.682e-11 1.682e-11 1.682e-11 1.682e-11 1.682e-11 1.682e-11 1.682e-11 1.682e-11 
5.615e-13 5.615e-13 5.615e-13 5.615e-13 5.615e-13 5.615e-13 5.615e-13 5.615e-13 5.615e-13 5.615e-13 5.615e-13 5.615e-13 5.615e-13 5.615e-13 5.615e-13 5.615e-13 5.615e-13 5.615e-13 5.615e-13 5.615e-13 5.615e-13 
1.468e-14 1.468e-14 1.468e-14 1.468e-14 1.468e-14 1.468e-14 1.468e-14 1.468e-14 1.468e-14 1.468e-14 1.468e-14 1.468e-14 1.468e-14 1.468e-14 1.468e-14 1.468e-14 1.468e-14 1.468e-14 1.468e-14 1.468e-14 1.468e-14 
3.005e-16 3.005e-16 3.005e-16 3.005e-16 3.005e-16 3.005e-16 3.005e-16 3.005e-16 3.005e-16 3.005e-16 3.005e-16 3.005e-16 3.005e-16 3.005e-16 3.005e-16 3.005e-16 3.005e-16 3.005e-16 3.005e-16 3.005e-16 3.005e-16 
2.269e-17 2.269e-17 2.269e-17 2.269e-17 2.269e-17 2.269e-17 2.269e-17 2.269e-17 2.269e-17 2.269e-17 2.269e-17 2.269e-17 2.269e-17 2.269e-17 2.269e-17 2.269e-17 2.269e-17 2.269e-17 2.269e-17 2.269e-17 2.269e-17 
6.27e-16 6.27e-16 6.27e-16 6.27e-16 6.27e-16 6.27e-16 6.27e-16 6.27e-16 6.27e-16 6.27e-16 6.27e-16 6.27e-16 6.27e-16 6.27e-16 6.27e-16 6.27e-16 6.27e-16 6.27e-16 6.27e-16 6.27e-16 6.27e-16 
1.78e-14 1.78e-14 1.78e-14 1.78e-14 1.78e-14 1.78e-14 1.78e-14 1.78e-14 1.78e-14 1.78e-14 1.78e-14 1.78e-14 1.78e-14 1.78e-14 1.78e-14 1.78e-14 1.78e-14 1.78e-14 1.78e-14 1.78e-14 1.78e-14 
4.121e-13 4.121e-13 4.121e-13 4.121e-13 4.121e-13 4.121e-13 4.121e-13 4.121e-13 4.121e-13 4.121e-13 4.121e-13 4.121e-13 4.121e-13 4.121e-13 4.121e-13 4.121e-13 4.121e-13 4.121e-13 4.121e-13 4.121e-13 4.121e-13 
</DataArray>
<DataArray Name="E" NumberOfComponents="1" format="ascii" type="Float64">
1 1 1 1 1 1 1 1 1 1 1 1 1 1 1 1 1 1 1 1 1 
1 1 1 1 1 1 1 1 1 1 1 1 1 1 1 1 1 1 1 1 1 
1 1 1 1 1 1 1 1 1 1 1 1 1 1 1 1 1 1 1 1 1 
1 1 1 1 1 1 1 1 1 1 1 1 1 1 1 1 1 1 1 1 1 
1 1 1 1 1 1 1 1 1 1 1 1 1 1 1 1 1 1 1 1 1 
1 1 1 1 1 1 1 1 1 1 1 1 1 1 1 1 1 1 1 1 1 
1 1 1 1 1 1 1 1 1 1 1 1 1 1 1 1 1 1 1 1 1 
1 1 1 1 1 1 1 1 1 1 1 1 1 1 1 1 1 1 1 1 1 
1 1 1 1 1 1 1 1 1 1 1 1 1 1 1 1 1 1 1 1 1 
1 1 1 1 1 1 1 1 1 1 1 1 1 1 1 1 1 1 1 1 1 
1 1 1 1 1 1 1 1 1 1 1 1 1 1 1 1 1 1 1 1 1 
1 1 1 1 1 1 1 1 1 1 1 1 1 1 1 1 1 1 1 1 1 
1 1 1 1 1 1 1 1 1 1 1 1 1 1 1 1 1 1 1 1 1 
1 1 1 1 1 1 1 1 1 1 1 1 1 1 1 1 1 1 1 1 1 
1 1 1 1 1 1 1 1 1 1 1 1 1 1 1 1 1 1 1 1 1 
1 1 1 1 1 1 1 1 1 1 1 1 1 1 1 1 1 1 1 1 1 
1 1 1 1 1 1 1 1 1 1 1 1 1 1 1 1 1 1 1 1 1 
1 1 1 1 1 1 1 1 1 1 1 1 1 1 1 1 1 1 1 1 1 
1 1 1 1 1 1 1 1 1 1 1 1 1 1 1 1 1 1 1 1 1 
1 1 1 1 1 1 1 1 1 1 1 1 1 1 1 1 1 1 1 1 1 
1 1 1 1 1 1 1 1 1 1 1 1 1 1 1 1 1 1 1 1 1 
1 1 1 1 1 1 1 1 1 1 1 1 1 1 1 1 1 1 1 1 1 
1 1 1 1 1 1 1 1 1 1 1 1 1 1 1 1 1 1 1 1 1 
1 1 1 1 1 1 1 1 1 1 1 1 1 1 1 1 1 1 1 1 1 
1 1 1 1 1 1 1 1 1 1 1 1 1 1 1 1 1 1 1 1 1 
1 1 1 1 1 1 1 1 1 1 1 1 1 1 1 1 1 1 1 1 1 
1 1 1 1 1 1 1 1 1 1 1 1 1 1 1 1 1 1 1 1 1 
1 1 1 1 1 1 1 1 1 1 1 1 1 1 1 1 1 1 1 1 1 
1 1 1 1 1 1 1 1 1 1 1 1 1 1 1 1 1 1 1 1 1 
1 1 1 1 1 1 1 1 1 1 1 1 1 1 1 1 1 1 1 1 1 
1 1 1 1 1 1 1 1 1 1 1 1 1 1 1 1 1 1 1 1 1 
1 1 1 1 1 1 1 1 1 1 1 1 1 1 1 1 1 1 1 1 1 
1 1 1 1 1 1 1 1 1 1 1 1 1 1 1 1 1 1 1 1 1 
1 1 1 1 1 1 1 1 1 1 1 1 1 1 1 1 1 1 1 1 1 
1 1 1 1 1 1 1 1 1 1 1 1 1 1 1 1 1 1 1 1 1 
1 1 1 1 1 1 1 1 1 1 1 1 1 1 1 1 1 1 1 1 1 
1 1 1 1 1 1 1 1 1 1 1 1 1 1 1 1 1 1 1 1 1 
1 1 1 1 1 1 1 1 1 1 1 1 1 1 1 1 1 1 1 1 1 
1 1 1 1 1 1 1 1 1 1 1 1 1 1 1 1 1 1 1 1 1 
1 1 1 1 1 1 1 1 1 1 1 1 1 1 1 1 1 1 1 1 1 
1 1 1 1 1 1 1 1 1 1 1 1 1 1 1 1 1 1 1 1 1 
</DataArray>
<DataArray Name="ne" NumberOfComponents="1" format="ascii" type="Float64">
1 1 1 1 1 1 1 1 1 1 1 1 1 1 1 1 1 1 1 1 1 
1 1 1 1 1 1 1 1 1 1 1 1 1 1 1 1 1 1 1 1 1 
1 1 1 1 1 1 1 1 1 1 1 1 1 1 1 1 1 1 1 1 1 
1 1 1 1 1 1 1 1 1 1 1 1 1 1 1 1 1 1 1 1 1 
1 1 1 1 1 1 1 1 1 1 1 1 1 1 1 1 1 1 1 1 1 
1 1 1 1 1 1 1 1 1 1 1 1 1 1 1 1 1 1 1 1 1 
1 1 1 1 1 1 1 1 1 1 1 1 1 1 1 1 1 1 1 1 1 
1 1 1 1 1 1 1 1 1 1 1 1 1 1 1 1 1 1 1 1 1 
1 1 1 1 1 1 1 1 1 1 1 1 1 1 1 1 1 1 1 1 1 
1 1 1 1 1 1 1 1 1 1 1 1 1 1 1 1 1 1 1 1 1 
1 1 1 1 1 1 1 1 1 1 1 1 1 1 1 1 1 1 1 1 1 
1 1 1 1 1 1 1 1 1 1 1 1 1 1 1 1 1 1 1 1 1 
1 1 1 1 1 1 1 1 1 1 1 1 1 1 1 1 1 1 1 1 1 
1 1 1 1 1 1 1 1 1 1 1 1 1 1 1 1 1 1 1 1 1 
1 1 1 1 1 1 1 1 1 1 1 1 1 1 1 1 1 1 1 1 1 
1 1 1 1 1 1 1 1 1 1 1 1 1 1 1 1 1 1 1 1 1 
1 1 1 1 1 1 1 1 1 1 1 1 1 1 1 1 1 1 1 1 1 
1 1 1 1 1 1 1 1 1 1 1 1 1 1 1 1 1 1 1 1 1 
1 1 1 1 1 1 1 1 1 1 1 1 1 1 1 1 1 1 1 1 1 
1 1 1 1 1 1 1 1 1 1 1 1 1 1 1 1 1 1 1 1 1 
1 1 1 1 1 1 1 1 1 1 1 1 1 1 1 1 1 1 1 1 1 
1 1 1 1 1 1 1 1 1 1 1 1 1 1 1 1 1 1 1 1 1 
1 1 1 1 1 1 1 1 1 1 1 1 1 1 1 1 1 1 1 1 1 
1 1 1 1 1 1 1 1 1 1 1 1 1 1 1 1 1 1 1 1 1 
1 1 1 1 1 1 1 1 1 1 1 1 1 1 1 1 1 1 1 1 1 
1 1 1 1 1 1 1 1 1 1 1 1 1 1 1 1 1 1 1 1 1 
1 1 1 1 1 1 1 1 1 1 1 1 1 1 1 1 1 1 1 1 1 
1 1 1 1 1 1 1 1 1 1 1 1 1 1 1 1 1 1 1 1 1 
1 1 1 1 1 1 1 1 1 1 1 1 1 1 1 1 1 1 1 1 1 
1 1 1 1 1 1 1 1 1 1 1 1 1 1 1 1 1 1 1 1 1 
1 1 1 1 1 1 1 1 1 1 1 1 1 1 1 1 1 1 1 1 1 
1 1 1 1 1 1 1 1 1 1 1 1 1 1 1 1 1 1 1 1 1 
1 1 1 1 1 1 1 1 1 1 1 1 1 1 1 1 1 1 1 1 1 
1 1 1 1 1 1 1 1 1 1 1 1 1 1 1 1 1 1 1 1 1 
1 1 1 1 1 1 1 1 1 1 1 1 1 1 1 1 1 1 1 1 1 
1 1 1 1 1 1 1 1 1 1 1 1 1 1 1 1 1 1 1 1 1 
1 1 1 1 1 1 1 1 1 1 1 1 1 1 1 1 1 1 1 1 1 
1 1 1 1 1 1 1 1 1 1 1 1 1 1 1 1 1 1 1 1 1 
1 1 1 1 1 1 1 1 1 1 1 1 1 1 1 1 1 1 1 1 1 
1 1 1 1 1 1 1 1 1 1 1 1 1 1 1 1 1 1 1 1 1 
1 1 1 1 1 1 1 1 1 1 1 1 1 1 1 1 1 1 1 1 1 
</DataArray>
</PointData>
</Piece>
</ImageData>
</VTKFile>
