<VTKFile type="ImageData">
<ImageData Origin="0 -10 0" Spacing="0.5 0.5 1" WholeExtent="0 20 0 40 0 0">
<Piece Extent="0 20 0 40 0 0">
<PointData>
<DataArray Name="f" NumberOfComponents="1" format="ascii" type="Float64">
2.165e-05 2.165e-05 2.165e-05 2.165e-05 2.165e-05 2.165e-05 2.165e-05 2.165e-05 2.165e-05 2.165e-05 2.165e-05 2.165e-05 2.165e-05 2.165e-05 2.165e-05 2.165e-05 2.165e-05 2.165e-05 2.165e-05 2.165e-05 2.165e-05 
7.917e-05 7.917e-05 7.917e-05 7.917e-05 7.917e-05 7.917e-05 7.917e-05 7.917e-05 7.917e-05 7.917e-05 7.917e-05 7.917e-05 7.917e-05 7.917e-05 7.917e-05 7.917e-05 7.917e-05 7.917e-05 7.917e-05 7.917e-05 7.917e-05 
0.0002635 0.0002635 0.0002635 0.0002635 0.0002635 0.0002635 0.0002635 0.0002635 0.0002635 0.0002635 0.0002635 0.0002635 0.0002635 0.0002635 0.0002635 0.0002635 0.0002635 0.0002635 0.0002635 0.0002635 0.0002635 
0.0007984 0.0007984 0.0007984 0.0007984 0.0007984 0.0007984 0.0007984 0.0007984 0.0007984 0.0007984 0.0007984 0.0007984 0.0007984 0.0007984 0.0007984 0.0007984 0.0007984 0.0007984 0.0007984 0.0007984 0.0007984 
0.002202 0.002202 0.002202 0.002202 0.002202 0.002202 0.002202 0.002202 0.002202 0.002202 0.002202 0.002202 0.002202 0.002202 0.002202 0.002202 0.002202 0.002202 0.002202 0.002202 0.002202 
0.005529 0.005529 0.005529 0.005529 0.005529 0.005529 0.005529 0.005529 0.005529 0.005529 0.005529 0.005529 0.005529 0.005529 0.005529 0.005529 0.005529 0.005529 0.005529 0.005529 0.005529 
0.01263 0.01263 0.01263 0.01263 0.01263 0.01263 0.01263 0.01263 0.01263 0.01263 0.01263 0.01263 0.01263 0.01263 0.01263 0.01263 0.01263 0.01263 0.01263 0.01263 0.01263 
0.02622 0.02622 0.02622 0.02622 0.02622 0.02622 0.02622 0.02622 0.02622 0.02622 0.02622 0.02622 0.02622 0.02622 0.02622 0.02622 0.02622 0.02622 0.02622 0.02622 0.02622 
0.04943 0.04943 0.04943 0.04943 0.04943 0.04943 0.04943 0.04943 0.04943 0.04943 0.04943 0.04943 0.04943 0.04943 0.04943 0.04943 0.04943 0.04943 0.04943 0.04943 0.04943 
0.08451 0.08451 0.08451 0.08451 0.08451 0.08451 0.08451 0.08451 0.08451 0.08451 0.08451 0.08451 0.08451 0.08451 0.08451 0.08451 0.08451 0.08451 0.08451 0.08451 0.08451 
0.1308 0.1308 0.1308 0.1308 0.1308 0.1308 0.1308 0.1308 0.1308 0.1308 0.1308 0.1308 0.1308 0.1308 0.1308 0.1308 0.1308 0.1308 0.1308 0.1308 0.1308 
0.1829 0.1829 0.1829 0.1829 0.1829 0.1829 0.1829 0.1829 0.1829 0.1829 0.1829 0.1829 0.1829 0.1829 0.1829 0.1829 0.1829 0.1829 0.1829 0.1829 0.1829 
0.2306 0.2306 0.2306 0.2306 0.2306 0.2306 0.2306 0.2306 0.2306 0.2306 0.2306 0.2306 0.2306 0.2306 0.2306 0.2306 0.2306 0.2306 0.2306 0.2306 0.2306 
0.2614 0.2614 0.2614 0.2614 0.2614 0.2614 0.2614 0.2614 0.2614 0.2614 0.2614 0.2614 0.2614 0.2614 0.2614 0.2614 0.2614 0.2614 0.2614 0.2614 0.2614 
0.2654 0.2654 0.2654 0.2654 0.2654 0.2654 0.2654 0.2654 0.2654 0.2654 0.2654 0.2654 0.2654 0.2654 0.2654 0.2654 0.2654 0.2654 0.2654 0.2654 0.2654 
0.2408 0.2408 0.2408 0.2408 0.2408 0.2408 0.2408 0.2408 0.2408 0.2408 0.2408 0.2408 0.2408 0.2408 0.2408 0.2408 0.2408 0.2408 0.2408 0.2408 0.2408 
0.1943 0.1943 0.1943 0.1943 0.1943 0.1943 0.1943 0.1943 0.1943 0.1943 0.1943 0.1943 0.1943 0.1943 0.1943 0.1943 0.1943 0.1943 0.1943 0.1943 0.1943 
0.1388 0.1388 0.1388 0.1388 0.1388 0.1388 0.1388 0.1388 0.1388 0.1388 0.1388 0.1388 0.1388 0.1388 0.1388 0.1388 0.1388 0.1388 0.1388 0.1388 0.1388 
0.0874 0.0874 0.0874 0.0874 0.0874 0.0874 0.0874 0.0874 0.0874 0.0874 0.0874 0.0874 0.0874 0.0874 0.0874 0.0874 0.0874 0.0874 0.0874 0.0874 0.0874 
0.04822 0.04822 0.04822 0.04822 0.04822 0.04822 0.04822 0.04822 0.04822 0.04822 0.04822 0.04822 0.04822 0.04822 0.04822 0.04822 0.04822 0.04822 0.04822 0.04822 0.04822 
0.02318 0.02318 0.02318 0.02318 0.02318 0.02318 0.02318 0.02318 0.02318 0.02318 0.02318 0.02318 0.02318 0.02318 0.02318 0.02318 0.02318 0.02318 0.02318 0.02318 0.02318 
0.00964 0.00964 0.00964 0.00964 0.00964 0.00964 0.00964 0.00964 0.00964 0.00964 0.00964 0.00964 0.00964 0.00964 0.00964 0.00964 0.00964 0.00964 0.00964 0.00964 0.00964 
0.003445 0.003445 0.003445 0.003445 0.003445 0.003445 0.003445 0.003445 0.003445 0.003445 0.003445 0.003445 0.003445 0.003445 0.003445 0.003445 0.003445 0.003445 0.003445 0.003445 0.003445 
0.00105 0.00105 0.00105 0.00105 0.00105 0.00105 0.00105 0.00105 0.00105 0.00105 0.00105 0.00105 0.00105 0.00105 0.00105 0.00105 0.00105 0.00105 0.00105 0.00105 0.00105 
0.0002706 0.0002706 0.0002706 0.0002706 0.0002706 0.0002706 0.0002706 0.0002706 0.0002706 0.0002706 0.0002706 0.0002706 0.0002706 0.0002706 0.0002706 0.0002706 0.0002706 0.0002706 0.0002706 0.0002706 0.0002706 
5.854e-05 5.854e-05 5.854e-05 5.854e-05 5.854e-05 5.854e-05 5.854e-05 5.854e-05 5.854e-05 5.854e-05 5.854e-05 5.854e-05 5.854e-05 5.854e-05 5.854e-05 5.854e-05 5.854e-05 5.854e-05 5.854e-05 5.854e-05 5.854e-05 
1.054e-05 1.054e-05 1.054e-05 1.054e-05 1.054e-05 1.054e-05 1.054e-05 1.054e-05 1.054e-05 1.054e-05 1.054e-05 1.054e-05 1.054e-05 1.054e-05 1.054e-05 1.054e-05 1.054e-05 1.054e-05 1.054e-05 1.054e-05 1.054e-05 
1.566e-06 1.566e-06 1.566e-06 1.566e-06 1.566e-06 1.566e-06 1.566e-06 1.566e-06 1.566e-06 1.566e-06 1.566e-06 1.566e-06 1.566e-06 1.566e-06 1.566e-06 1.566e-06 1.566e-06 1.566e-06 1.566e-06 1.566e-06 1.566e-06 
1.906e-07 1.906e-07 1.906e-07 1.906e-07 1.906e-07 1.906e-07 1.906e-07 1.906e-07 1.906e-07 1.906e-07 1.906e-07 1.906e-07 1.906e-07 1.906e-07 1.906e-07 1.906e-07 1.906e-07 1.906e-07 1.906e-07 1.906e-07 1.906e-07 
1.885e-08 1.885e-08 1.885e-08 1.885e-08 1.885e-08 1.885e-08 1.885e-08 1.885e-08 1.885e-08 1.885e-08 1.885e-08 1.885e-08 1.885e-08 1.885e-08 1.885e-08 1.885e-08 1.885e-08 1.885e-08 1.885e-08 1.885e-08 1.885e-08 
1.505e-09 1.505e-09 1.505e-09 1.505e-09 1.505e-09 1.505e-09 1.505e-09 1.505e-09 1.505e-09 1.505e-09 1.505e-09 1.505e-09 1.505e-09 1.505e-09 1.505e-09 1.505e-09 1.505e-09 1.505e-09 1.505e-09 1.505e-09 1.505e-09 
9.669e-11 9.669e-11 9.669e-11 9.669e-11 9.669e-11 9.669e-11 9.669e-11 9.669e-11 9.669e-11 9.669e-11 9.669e-11 9.669e-11 9.669e-11 9.669e-11 9.669e-11 9.669e-11 9.669e-11 9.669e-11 9.669e-11 9.669e-11 9.669e-11 
7.146e-12 7.146e-12 7.146e-12 7.146e-12 7.146e-12 7.146e-12 7.146e-12 7.146e-12 7.146e-12 7.146e-12 7.146e-12 7.146e-12 7.146e-12 7.146e-12 7.146e-12 7.146e-12 7.146e-12 7.146e-12 7.146e-12 7.146e-12 7.146e-12 
2.026e-11 2.026e-11 2.026e-11 2.026e-11 2.026e-11 2.026e-11 2.026e-11 2.026e-11 2.026e-11 2.026e-11 2.026e-11 2.026e-11 2.026e-11 2.026e-11 2.026e-11 2.026e-11 2.026e-11 2.026e-11 2.026e-11 2.026e-11 2.026e-11 
1.63e-10 1.63e-10 1.63e-10 1.63e-10 1.63e-10 1.63e-10 1.63e-10 1.63e-10 1.63e-10 1.63e-10 1.63e-10 1.63e-10 1.63e-10 1.63e-10 1.63e-10 1.63e-10 1.63e-10 1.63e-10 1.63e-10 1.63e-10 1.63e-10 
1.19e-09 1.19e-09 1.19e-09 1.19e-09 1.19e-09 1.19e-09 1.19e-09 1.19e-09 1.19e-09 1.19e-09 1.19e-09 1.19e-09 1.19e-09 1.19e-09 1.19e-09 1.19e-09 1.19e-09 1.19e-09 1.19e-09 1.19e-09 1.19e-09 
7.826e-09 7.826e-09 7.826e-09 7.826e-09 7.826e-09 7.826e-09 7.826e-09 7.826e-09 7.826e-09 7.826e-09 7.826e-09 7.826e-09 7.826e-09 7.826e-09 7.826e-09 7.826e-09 7.826e-09 7.826e-09 7.826e-09 7.826e-09 7.826e-09 
4.648e-08 4.648e-08 4.648e-08 4.648e-08 4.648e-08 4.648e-08 4.648e-08 4.648e-08 4.648e-08 4.648e-08 4.648e-08 4.648e-08 4.648e-08 4.648e-08 4.648e-08 4.648e-08 4.648e-08 4.648e-08 4.648e-08 4.648e-08 4.648e-08 
2.499e-07 2.499e-07 2.499e-07 2.499e-07 2.499e-07 2.499e-07 2.499e-07 2.499e-07 2.499e-07 2.499e-07 2.499e-07 2.499e-07 2.499e-07 2.499e-07 2.499e-07 2.499e-07 2.499e-07 2.499e-07 2.499e-07 2.499e-07 2.499e-07 
1.217e-06 1.217e-06 1.217e-06 1.217e-06 1.217e-06 1.217e-06 1.217e-06 1.217e-06 1.217e-06 1.217e-06 1.217e-06 1.217e-06 1.217e-06 1.217e-06 1.217e-06 1.217e-06 1.217e-06 1.217e-06 1.217e-06 1.217e-06 1.217e-06 
5.385e-06 5.385e-06 5.385e-06 5.385e-06 5.385e-06 5.385e-06 5.385e-06 5.385e-06 5.385e-06 5.385e-06 5.385e-06 5.385e-06 5.385e-06 5.385e-06 5.385e-06 5.385e-06 5.385e-06 5.385e-06 5.385e-06 5.385e-06 5.385e-06 
</DataArray>
<DataArray Name="E" NumberOfComponents="1" format="ascii" type="Float64">
1 1 1 1 1 1 1 1 1 1 1 1 1 1 1 1 1 1 1 1 1 
1 1 1 1 1 1 1 1 1 1 1 1 1 1 1 1 1 1 1 1 1 
1 1 1 1 1 1 1 1 1 1 1 1 1 1 1 1 1 1 1 1 1 
1 1 1 1 1 1 1 1 1 1 1 1 1 1 1 1 1 1 1 1 1 
1 1 1 1 1 1 1 1 1 1 1 1 1 1 1 1 1 1 1 1 1 
1 1 1 1 1 1 1 1 1 1 1 1 1 1 1 1 1 1 1 1 1 
1 1 1 1 1 1 1 1 1 1 1 1 1 1 1 1 1 1 1 1 1 
1 1 1 1 1 1 1 1 1 1 1 1 1 1 1 1 1 1 1 1 1 
1 1 1 1 1 1 1 1 1 1 1 1 1 1 1 1 1 1 1 1 1 
1 1 1 1 1 1 1 1 1 1 1 1 1 1 1 1 1 1 1 1 1 
1 1 1 1 1 1 1 1 1 1 1 1 1 1 1 1 1 1 1 1 1 
1 1 1 1 1 1 1 1 1 1 1 1 1 1 1 1 1 1 1 1 1 
1 1 1 1 1 1 1 1 1 1 1 1 1 1 1 1 1 1 1 1 1 
1 1 1 1 1 1 1 1 1 1 1 1 1 1 1 1 1 1 1 1 1 
1 1 1 1 1 1 1 1 1 1 1 1 1 1 1 1 1 1 1 1 1 
1 1 1 1 1 1 1 1 1 1 1 1 1 1 1 1 1 1 1 1 1 
1 1 1 1 1 1 1 1 1 1 1 1 1 1 1 1 1 1 1 1 1 
1 1 1 1 1 1 1 1 1 1 1 1 1 1 1 1 1 1 1 1 1 
1 1 1 1 1 1 1 1 1 1 1 1 1 1 1 1 1 1 1 1 1 
1 1 1 1 1 1 1 1 1 1 1 1 1 1 1 1 1 1 1 1 1 
1 1 1 1 1 1 1 1 1 1 1 1 1 1 1 1 1 1 1 1 1 
1 1 1 1 1 1 1 1 1 1 1 1 1 1 1 1 1 1 1 1 1 
1 1 1 1 1 1 1 1 1 1 1 1 1 1 1 1 1 1 1 1 1 
1 1 1 1 1 1 1 1 1 1 1 1 1 1 1 1 1 1 1 1 1 
1 1 1 1 1 1 1 1 1 1 1 1 1 1 1 1 1 1 1 1 1 
1 1 1 1 1 1 1 1 1 1 1 1 1 1 1 1 1 1 1 1 1 
1 1 1 1 1 1 1 1 1 1 1 1 1 1 1 1 1 1 1 1 1 
1 1 1 1 1 1 1 1 1 1 1 1 1 1 1 1 1 1 1 1 1 
1 1 1 1 1 1 1 1 1 1 1 1 1 1 1 1 1 1 1 1 1 
1 1 1 1 1 1 1 1 1 1 1 1 1 1 1 1 1 1 1 1 1 
1 1 1 1 1 1 1 1 1 1 1 1 1 1 1 1 1 1 1 1 1 
1 1 1 1 1 1 1 1 1 1 1 1 1 1 1 1 1 1 1 1 1 
1 1 1 1 1 1 1 1 1 1 1 1 1 1 1 1 1 1 1 1 1 
1 1 1 1 1 1 1 1 1 1 1 1 1 1 1 1 1 1 1 1 1 
1 1 1 1 1 1 1 1 1 1 1 1 1 1 1 1 1 1 1 1 1 
1 1 1 1 1 1 1 1 1 1 1 1 1 1 1 1 1 1 1 1 1 
1 1 1 1 1 1 1 1 1 1 1 1 1 1 1 1 1 1 1 1 1 
1 1 1 1 1 1 1 1 1 1 1 1 1 1 1 1 1 1 1 1 1 
1 1 1 1 1 1 1 1 1 1 1 1 1 1 1 1 1 1 1 1 1 
1 1 1 1 1 1 1 1 1 1 1 1 1 1 1 1 1 1 1 1 1 
1 1 1 1 1 1 1 1 1 1 1 1 1 1 1 1 1 1 1 1 1 
</DataArray>
<DataArray Name="ne" NumberOfComponents="1" format="ascii" type="Float64">
1 1 1 1 1 1 1 1 1 1 1 1 1 1 1 1 1 1 1 1 1 
1 1 1 1 1 1 1 1 1 1 1 1 1 1 1 1 1 1 1 1 1 
1 1 1 1 1 1 1 1 1 1 1 1 1 1 1 1 1 1 1 1 1 
1 1 1 1 1 1 1 1 1 1 1 1 1 1 1 1 1 1 1 1 1 
1 1 1 1 1 1 1 1 1 1 1 1 1 1 1 1 1 1 1 1 1 
1 1 1 1 1 1 1 1 1 1 1 1 1 1 1 1 1 1 1 1 1 
1 1 1 1 1 1 1 1 1 1 1 1 1 1 1 1 1 1 1 1 1 
1 1 1 1 1 1 1 1 1 1 1 1 1 1 1 1 1 1 1 1 1 
1 1 1 1 1 1 1 1 1 1 1 1 1 1 1 1 1 1 1 1 1 
1 1 1 1 1 1 1 1 1 1 1 1 1 1 1 1 1 1 1 1 1 
1 1 1 1 1 1 1 1 1 1 1 1 1 1 1 1 1 1 1 1 1 
1 1 1 1 1 1 1 1 1 1 1 1 1 1 1 1 1 1 1 1 1 
1 1 1 1 1 1 1 1 1 1 1 1 1 1 1 1 1 1 1 1 1 
1 1 1 1 1 1 1 1 1 1 1 1 1 1 1 1 1 1 1 1 1 
1 1 1 1 1 1 1 1 1 1 1 1 1 1 1 1 1 1 1 1 1 
1 1 1 1 1 1 1 1 1 1 1 1 1 1 1 1 1 1 1 1 1 
1 1 1 1 1 1 1 1 1 1 1 1 1 1 1 1 1 1 1 1 1 
1 1 1 1 1 1 1 1 1 1 1 1 1 1 1 1 1 1 1 1 1 
1 1 1 1 1 1 1 1 1 1 1 1 1 1 1 1 1 1 1 1 1 
1 1 1 1 1 1 1 1 1 1 1 1 1 1 1 1 1 1 1 1 1 
1 1 1 1 1 1 1 1 1 1 1 1 1 1 1 1 1 1 1 1 1 
1 1 1 1 1 1 1 1 1 1 1 1 1 1 1 1 1 1 1 1 1 
1 1 1 1 1 1 1 1 1 1 1 1 1 1 1 1 1 1 1 1 1 
1 1 1 1 1 1 1 1 1 1 1 1 1 1 1 1 1 1 1 1 1 
1 1 1 1 1 1 1 1 1 1 1 1 1 1 1 1 1 1 1 1 1 
1 1 1 1 1 1 1 1 1 1 1 1 1 1 1 1 1 1 1 1 1 
1 1 1 1 1 1 1 1 1 1 1 1 1 1 1 1 1 1 1 1 1 
1 1 1 1 1 1 1 1 1 1 1 1 1 1 1 1 1 1 1 1 1 
1 1 1 1 1 1 1 1 1 1 1 1 1 1 1 1 1 1 1 1 1 
1 1 1 1 1 1 1 1 1 1 1 1 1 1 1 1 1 1 1 1 1 
1 1 1 1 1 1 1 1 1 1 1 1 1 1 1 1 1 1 1 1 1 
1 1 1 1 1 1 1 1 1 1 1 1 1 1 1 1 1 1 1 1 1 
1 1 1 1 1 1 1 1 1 1 1 1 1 1 1 1 1 1 1 1 1 
1 1 1 1 1 1 1 1 1 1 1 1 1 1 1 1 1 1 1 1 1 
1 1 1 1 1 1 1 1 1 1 1 1 1 1 1 1 1 1 1 1 1 
1 1 1 1 1 1 1 1 1 1 1 1 1 1 1 1 1 1 1 1 1 
1 1 1 1 1 1 1 1 1 1 1 1 1 1 1 1 1 1 1 1 1 
1 1 1 1 1 1 1 1 1 1 1 1 1 1 1 1 1 1 1 1 1 
1 1 1 1 1 1 1 1 1 1 1 1 1 1 1 1 1 1 1 1 1 
1 1 1 1 1 1 1 1 1 1 1 1 1 1 1 1 1 1 1 1 1 
1 1 1 1 1 1 1 1 1 1 1 1 1 1 1 1 1 1 1 1 1 
</DataArray>
</PointData>
</Piece>
</ImageData>
</VTKFile>
