<VTKFile type="ImageData">
<ImageData Origin="0 -10 0" Spacing="0.5 0.5 1" WholeExtent="0 20 0 40 0 0">
<Piece Extent="0 20 0 40 0 0">
<PointData>
<DataArray Name="f" NumberOfComponents="1" format="ascii" type="Float64">
0.001031 0.001031 0.001031 0.001031 0.001031 0.001031 0.001031 0.001031 0.001031 0.001031 0.001031 0.001031 0.001031 0.001031 0.001031 0.001031 0.001031 0.001031 0.001031 0.001031 0.001031 
0.002527 0.002527 0.002527 0.002527 0.002527 0.002527 0.002527 0.002527 0.002527 0.002527 0.002527 0.002527 0.002527 0.002527 0.002527 0.002527 0.002527 0.002527 0.002527 0.002527 0.002527 
0.005732 0.005732 0.005732 0.005732 0.005732 0.005732 0.005732 0.005732 0.005732 0.005732 0.005732 0.005732 0.005732 0.005732 0.005732 0.005732 0.005732 0.005732 0.005732 0.005732 0.005732 
0.01203 0.01203 0.01203 0.01203 0.01203 0.01203 0.01203 0.01203 0.01203 0.01203 0.01203 0.01203 0.01203 0.01203 0.01203 0.01203 0.01203 0.01203 0.01203 0.01203 0.01203 
0.02336 0.02336 0.02336 0.02336 0.02336 0.02336 0.02336 0.02336 0.02336 0.02336 0.02336 0.02336 0.02336 0.02336 0.02336 0.02336 0.02336 0.02336 0.02336 0.02336 0.02336 
0.04188 0.04188 0.04188 0.04188 0.04188 0.04188 0.04188 0.04188 0.04188 0.04188 0.04188 0.04188 0.04188 0.04188 0.04188 0.04188 0.04188 0.04188 0.04188 0.04188 0.04188 
0.06928 0.06928 0.06928 0.06928 0.06928 0.06928 0.06928 0.06928 0.06928 0.06928 0.06928 0.06928 0.06928 0.06928 0.06928 0.06928 0.06928 0.06928 0.06928 0.06928 0.06928 
0.1056 0.1056 0.1056 0.1056 0.1056 0.1056 0.1056 0.1056 0.1056 0.1056 0.1056 0.1056 0.1056 0.1056 0.1056 0.1056 0.1056 0.1056 0.1056 0.1056 0.1056 
0.1481 0.1481 0.1481 0.1481 0.1481 0.1481 0.1481 0.1481 0.1481 0.1481 0.1481 0.1481 0.1481 0.1481 0.1481 0.1481 0.1481 0.1481 0.1481 0.1481 0.1481 
0.1907 0.1907 0.1907 0.1907 0.1907 0.1907 0.1907 0.1907 0.1907 0.1907 0.1907 0.1907 0.1907 0.1907 0.1907 0.1907 0.1907 0.1907 0.1907 0.1907 0.1907 
0.225 0.225 0.225 0.225 0.225 0.225 0.225 0.225 0.225 0.225 0.225 0.225 0.225 0.225 0.225 0.225 0.225 0.225 0.225 0.225 0.225 
0.2428 0.2428 0.2428 0.2428 0.2428 0.2428 0.2428 0.2428 0.2428 0.2428 0.2428 0.2428 0.2428 0.2428 0.2428 0.2428 0.2428 0.2428 0.2428 0.2428 0.2428 
0.2389 0.2389 0.2389 0.2389 0.2389 0.2389 0.2389 0.2389 0.2389 0.2389 0.2389 0.2389 0.2389 0.2389 0.2389 0.2389 0.2389 0.2389 0.2389 0.2389 0.2389 
0.2137 0.2137 0.2137 0.2137 0.2137 0.2137 0.2137 0.2137 0.2137 0.2137 0.2137 0.2137 0.2137 0.2137 0.2137 0.2137 0.2137 0.2137 0.2137 0.2137 0.2137 
0.1733 0.1733 0.1733 0.1733 0.1733 0.1733 0.1733 0.1733 0.1733 0.1733 0.1733 0.1733 0.1733 0.1733 0.1733 0.1733 0.1733 0.1733 0.1733 0.1733 0.1733 
0.127 0.127 0.127 0.127 0.127 0.127 0.127 0.127 0.127 0.127 0.127 0.127 0.127 0.127 0.127 0.127 0.127 0.127 0.127 0.127 0.127 
0.08366 0.08366 0.08366 0.08366 0.08366 0.08366 0.08366 0.08366 0.08366 0.08366 0.08366 0.08366 0.08366 0.08366 0.08366 0.08366 0.08366 0.08366 0.08366 0.08366 0.08366 
0.04937 0.04937 0.04937 0.04937 0.04937 0.04937 0.04937 0.04937 0.04937 0.04937 0.04937 0.04937 0.04937 0.04937 0.04937 0.04937 0.04937 0.04937 0.04937 0.04937 0.04937 
0.02596 0.02596 0.02596 0.02596 0.02596 0.02596 0.02596 0.02596 0.02596 0.02596 0.02596 0.02596 0.02596 0.02596 0.02596 0.02596 0.02596 0.02596 0.02596 0.02596 0.02596 
0.0121 0.0121 0.0121 0.0121 0.0121 0.0121 0.0121 0.0121 0.0121 0.0121 0.0121 0.0121 0.0121 0.0121 0.0121 0.0121 0.0121 0.0121 0.0121 0.0121 0.0121 
0.004972 0.004972 0.004972 0.004972 0.004972 0.004972 0.004972 0.004972 0.004972 0.004972 0.004972 0.004972 0.004972 0.004972 0.004972 0.004972 0.004972 0.004972 0.004972 0.004972 0.004972 
0.001789 0.001789 0.001789 0.001789 0.001789 0.001789 0.001789 0.001789 0.001789 0.001789 0.001789 0.001789 0.001789 0.001789 0.001789 0.001789 0.001789 0.001789 0.001789 0.001789 0.001789 
0.0005594 0.0005594 0.0005594 0.0005594 0.0005594 0.0005594 0.0005594 0.0005594 0.0005594 0.0005594 0.0005594 0.0005594 0.0005594 0.0005594 0.0005594 0.0005594 0.0005594 0.0005594 0.0005594 0.0005594 0.0005594 
0.000151 0.000151 0.000151 0.000151 0.000151 0.000151 0.000151 0.000151 0.000151 0.000151 0.000151 0.000151 0.000151 0.000151 0.000151 0.000151 0.000151 0.000151 0.000151 0.000151 0.000151 
3.49e-05 3.49e-05 3.49e-05 3.49e-05 3.49e-05 3.49e-05 3.49e-05 3.49e-05 3.49e-05 3.49e-05 3.49e-05 3.49e-05 3.49e-05 3.49e-05 3.49e-05 3.49e-05 3.49e-05 3.49e-05 3.49e-05 3.49e-05 3.49e-05 
6.849e-06 6.849e-06 6.849e-06 6.849e-06 6.849e-06 6.849e-06 6.849e-06 6.849e-06 6.849e-06 6.849e-06 6.849e-06 6.849e-06 6.849e-06 6.849e-06 6.849e-06 6.849e-06 6.849e-06 6.849e-06 6.849e-06 6.849e-06 6.849e-06 
1.132e-06 1.132e-06 1.132e-06 1.132e-06 1.132e-06 1.132e-06 1.132e-06 1.132e-06 1.132e-06 1.132e-06 1.132e-06 1.132e-06 1.132e-06 1.132e-06 1.132e-06 1.132e-06 1.132e-06 1.132e-06 1.132e-06 1.132e-06 1.132e-06 
1.561e-07 1.561e-07 1.561e-07 1.561e-07 1.561e-07 1.561e-07 1.561e-07 1.561e-07 1.561e-07 1.561e-07 1.561e-07 1.561e-07 1.561e-07 1.561e-07 1.561e-07 1.561e-07 1.561e-07 1.561e-07 1.561e-07 1.561e-07 1.561e-07 
1.782e-08 1.782e-08 1.782e-08 1.782e-08 1.782e-08 1.782e-08 1.782e-08 1.782e-08 1.782e-08 1.782e-08 1.782e-08 1.782e-08 1.782e-08 1.782e-08 1.782e-08 1.782e-08 1.782e-08 1.782e-08 1.782e-08 1.782e-08 1.782e-08 
1.724e-09 1.724e-09 1.724e-09 1.724e-09 1.724e-09 1.724e-09 1.724e-09 1.724e-09 1.724e-09 1.724e-09 1.724e-09 1.724e-09 1.724e-09 1.724e-09 1.724e-09 1.724e-09 1.724e-09 1.724e-09 1.724e-09 1.724e-09 1.724e-09 
4.718e-10 4.718e-10 4.718e-10 4.718e-10 4.718e-10 4.718e-10 4.718e-10 4.718e-10 4.718e-10 4.718e-10 4.718e-10 4.718e-10 4.718e-10 4.718e-10 4.718e-10 4.718e-10 4.718e-10 4.718e-10 4.718e-10 4.718e-10 4.718e-10 
1.982e-09 1.982e-09 1.982e-09 1.982e-09 1.982e-09 1.982e-09 1.982e-09 1.982e-09 1.982e-09 1.982e-09 1.982e-09 1.982e-09 1.982e-09 1.982e-09 1.982e-09 1.982e-09 1.982e-09 1.982e-09 1.982e-09 1.982e-09 1.982e-09 
1.044e-08 1.044e-08 1.044e-08 1.044e-08 1.044e-08 1.044e-08 1.044e-08 1.044e-08 1.044e-08 1.044e-08 1.044e-08 1.044e-08 1.044e-08 1.044e-08 1.044e-08 1.044e-08 1.044e-08 1.044e-08 1.044e-08 1.044e-08 1.044e-08 
5.1e-08 5.1e-08 5.1e-08 5.1e-08 5.1e-08 5.1e-08 5.1e-08 5.1e-08 5.1e-08 5.1e-08 5.1e-08 5.1e-08 5.1e-08 5.1e-08 5.1e-08 5.1e-08 5.1e-08 5.1e-08 5.1e-08 5.1e-08 5.1e-08 
2.303e-07 2.303e-07 2.303e-07 2.304e-07 2.304e-07 2.304e-07 2.304e-07 2.304e-07 2.304e-07 2.304e-07 2.304e-07 2.304e-07 2.303e-07 2.303e-07 2.303e-07 2.303e-07 2.303e-07 2.303e-07 2.303e-07 2.303e-07 2.303e-07 
9.627e-07 9.627e-07 9.627e-07 9.628e-07 9.628e-07 9.628e-07 9.628e-07 9.628e-07 9.628e-07 9.628e-07 9.628e-07 9.628e-07 9.628e-07 9.628e-07 9.627e-07 9.627e-07 9.627e-07 9.627e-07 9.627e-07 9.627e-07 9.627e-07 
3.726e-06 3.726e-06 3.726e-06 3.726e-06 3.726e-06 3.726e-06 3.726e-06 3.726e-06 3.726e-06 3.726e-06 3.726e-06 3.726e-06 3.726e-06 3.726e-06 3.726e-06 3.726e-06 3.726e-06 3.726e-06 3.726e-06 3.726e-06 3.726e-06 
1.336e-05 1.336e-05 1.336e-05 1.336e-05 1.336e-05 1.336e-05 1.336e-05 1.336e-05 1.336e-05 1.336e-05 1.336e-05 1.336e-05 1.336e-05 1.336e-05 1.336e-05 1.336e-05 1.336e-05 1.336e-05 1.336e-05 1.336e-05 1.336e-05 
4.438e-05 4.438e-05 4.438e-05 4.438e-05 4.438e-05 4.438e-05 4.438e-05 4.438e-05 4.438e-05 4.438e-05 4.438e-05 4.438e-05 4.438e-05 4.438e-05 4.438e-05 4.438e-05 4.438e-05 4.438e-05 4.438e-05 4.438e-05 4.438e-05 
0.0001366 0.0001367 0.0001367 0.0001367 0.0001367 0.0001367 0.0001367 0.0001367 0.0001367 0.0001367 0.0001367 0.0001367 0.0001367 0.0001367 0.0001367 0.0001367 0.0001367 0.0001366 0.0001366 0.0001366 0.0001366 
0.00039 0.00039 0.00039 0.00039 0.00039 0.00039 0.00039 0.00039 0.00039 0.00039 0.00039 0.00039 0.00039 0.00039 0.00039 0.00039 0.00039 0.00039 0.00039 0.00039 0.00039 
</DataArray>
<DataArray Name="E" NumberOfComponents="1" format="ascii" type="Float64">
0.7748 0.7748 0.7748 0.7747 0.7747 0.7747 0.7747 0.7747 0.7747 0.7747 0.7747 0.7747 0.7747 0.7747 0.7747 0.7747 0.7747 0.7747 0.7747 0.7747 0.7747 
0.7748 0.7748 0.7748 0.7747 0.7747 0.7747 0.7747 0.7747 0.7747 0.7747 0.7747 0.7747 0.7747 0.7747 0.7747 0.7747 0.7747 0.7747 0.7747 0.7747 0.7747 
0.7748 0.7748 0.7748 0.7747 0.7747 0.7747 0.7747 0.7747 0.7747 0.7747 0.7747 0.7747 0.7747 0.7747 0.7747 0.7747 0.7747 0.7747 0.7747 0.7747 0.7747 
0.7748 0.7748 0.7748 0.7747 0.7747 0.7747 0.7747 0.7747 0.7747 0.7747 0.7747 0.7747 0.7747 0.7747 0.7747 0.7747 0.7747 0.7747 0.7747 0.7747 0.7747 
0.7748 0.7748 0.7748 0.7747 0.7747 0.7747 0.7747 0.7747 0.7747 0.7747 0.7747 0.7747 0.7747 0.7747 0.7747 0.7747 0.7747 0.7747 0.7747 0.7747 0.7747 
0.7748 0.7748 0.7748 0.7747 0.7747 0.7747 0.7747 0.7747 0.7747 0.7747 0.7747 0.7747 0.7747 0.7747 0.7747 0.7747 0.7747 0.7747 0.7747 0.7747 0.7747 
0.7748 0.7748 0.7748 0.7747 0.7747 0.7747 0.7747 0.7747 0.7747 0.7747 0.7747 0.7747 0.7747 0.7747 0.7747 0.7747 0.7747 0.7747 0.7747 0.7747 0.7747 
0.7748 0.7748 0.7748 0.7747 0.7747 0.7747 0.7747 0.7747 0.7747 0.7747 0.7747 0.7747 0.7747 0.7747 0.7747 0.7747 0.7747 0.7747 0.7747 0.7747 0.7747 
0.7748 0.7748 0.7748 0.7747 0.7747 0.7747 0.7747 0.7747 0.7747 0.7747 0.7747 0.7747 0.7747 0.7747 0.7747 0.7747 0.7747 0.7747 0.7747 0.7747 0.7747 
0.7748 0.7748 0.7748 0.7747 0.7747 0.7747 0.7747 0.7747 0.7747 0.7747 0.7747 0.7747 0.7747 0.7747 0.7747 0.7747 0.7747 0.7747 0.7747 0.7747 0.7747 
0.7748 0.7748 0.7748 0.7747 0.7747 0.7747 0.7747 0.7747 0.7747 0.7747 0.7747 0.7747 0.7747 0.7747 0.7747 0.7747 0.7747 0.7747 0.7747 0.7747 0.7747 
0.7748 0.7748 0.7748 0.7747 0.7747 0.7747 0.7747 0.7747 0.7747 0.7747 0.7747 0.7747 0.7747 0.7747 0.7747 0.7747 0.7747 0.7747 0.7747 0.7747 0.7747 
0.7748 0.7748 0.7748 0.7747 0.7747 0.7747 0.7747 0.7747 0.7747 0.7747 0.7747 0.7747 0.7747 0.7747 0.7747 0.7747 0.7747 0.7747 0.7747 0.7747 0.7747 
0.7748 0.7748 0.7748 0.7747 0.7747 0.7747 0.7747 0.7747 0.7747 0.7747 0.7747 0.7747 0.7747 0.7747 0.7747 0.7747 0.7747 0.7747 0.7747 0.7747 0.7747 
0.7748 0.7748 0.7748 0.7747 0.7747 0.7747 0.7747 0.7747 0.7747 0.7747 0.7747 0.7747 0.7747 0.7747 0.7747 0.7747 0.7747 0.7747 0.7747 0.7747 0.7747 
0.7748 0.7748 0.7748 0.7747 0.7747 0.7747 0.7747 0.7747 0.7747 0.7747 0.7747 0.7747 0.7747 0.7747 0.7747 0.7747 0.7747 0.7747 0.7747 0.7747 0.7747 
0.7748 0.7748 0.7748 0.7747 0.7747 0.7747 0.7747 0.7747 0.7747 0.7747 0.7747 0.7747 0.7747 0.7747 0.7747 0.7747 0.7747 0.7747 0.7747 0.7747 0.7747 
0.7748 0.7748 0.7748 0.7747 0.7747 0.7747 0.7747 0.7747 0.7747 0.7747 0.7747 0.7747 0.7747 0.7747 0.7747 0.7747 0.7747 0.7747 0.7747 0.7747 0.7747 
0.7748 0.7748 0.7748 0.7747 0.7747 0.7747 0.7747 0.7747 0.7747 0.7747 0.7747 0.7747 0.7747 0.7747 0.7747 0.7747 0.7747 0.7747 0.7747 0.7747 0.7747 
0.7748 0.7748 0.7748 0.7747 0.7747 0.7747 0.7747 0.7747 0.7747 0.7747 0.7747 0.7747 0.7747 0.7747 0.7747 0.7747 0.7747 0.7747 0.7747 0.7747 0.7747 
0.7748 0.7748 0.7748 0.7747 0.7747 0.7747 0.7747 0.7747 0.7747 0.7747 0.7747 0.7747 0.7747 0.7747 0.7747 0.7747 0.7747 0.7747 0.7747 0.7747 0.7747 
0.7748 0.7748 0.7748 0.7747 0.7747 0.7747 0.7747 0.7747 0.7747 0.7747 0.7747 0.7747 0.7747 0.7747 0.7747 0.7747 0.7747 0.7747 0.7747 0.7747 0.7747 
0.7748 0.7748 0.7748 0.7747 0.7747 0.7747 0.7747 0.7747 0.7747 0.7747 0.7747 0.7747 0.7747 0.7747 0.7747 0.7747 0.7747 0.7747 0.7747 0.7747 0.7747 
0.7748 0.7748 0.7748 0.7747 0.7747 0.7747 0.7747 0.7747 0.7747 0.7747 0.7747 0.7747 0.7747 0.7747 0.7747 0.7747 0.7747 0.7747 0.7747 0.7747 0.7747 
0.7748 0.7748 0.7748 0.7747 0.7747 0.7747 0.7747 0.7747 0.7747 0.7747 0.7747 0.7747 0.7747 0.7747 0.7747 0.7747 0.7747 0.7747 0.7747 0.7747 0.7747 
0.7748 0.7748 0.7748 0.7747 0.7747 0.7747 0.7747 0.7747 0.7747 0.7747 0.7747 0.7747 0.7747 0.7747 0.7747 0.7747 0.7747 0.7747 0.7747 0.7747 0.7747 
0.7748 0.7748 0.7748 0.7747 0.7747 0.7747 0.7747 0.7747 0.7747 0.7747 0.7747 0.7747 0.7747 0.7747 0.7747 0.7747 0.7747 0.7747 0.7747 0.7747 0.7747 
0.7748 0.7748 0.7748 0.7747 0.7747 0.7747 0.7747 0.7747 0.7747 0.7747 0.7747 0.7747 0.7747 0.7747 0.7747 0.7747 0.7747 0.7747 0.7747 0.7747 0.7747 
0.7748 0.7748 0.7748 0.7747 0.7747 0.7747 0.7747 0.7747 0.7747 0.7747 0.7747 0.7747 0.7747 0.7747 0.7747 0.7747 0.7747 0.7747 0.7747 0.7747 0.7747 
0.7748 0.7748 0.7748 0.7747 0.7747 0.7747 0.7747 0.7747 0.7747 0.7747 0.7747 0.7747 0.7747 0.7747 0.7747 0.7747 0.7747 0.7747 0.7747 0.7747 0.7747 
0.7748 0.7748 0.7748 0.7747 0.7747 0.7747 0.7747 0.7747 0.7747 0.7747 0.7747 0.7747 0.7747 0.7747 0.7747 0.7747 0.7747 0.7747 0.7747 0.7747 0.7747 
0.7748 0.7748 0.7748 0.7747 0.7747 0.7747 0.7747 0.7747 0.7747 0.7747 0.7747 0.7747 0.7747 0.7747 0.7747 0.7747 0.7747 0.7747 0.7747 0.7747 0.7747 
0.7748 0.7748 0.7748 0.7747 0.7747 0.7747 0.7747 0.7747 0.7747 0.7747 0.7747 0.7747 0.7747 0.7747 0.7747 0.7747 0.7747 0.7747 0.7747 0.7747 0.7747 
0.7748 0.7748 0.7748 0.7747 0.7747 0.7747 0.7747 0.7747 0.7747 0.7747 0.7747 0.7747 0.7747 0.7747 0.7747 0.7747 0.7747 0.7747 0.7747 0.7747 0.7747 
0.7748 0.7748 0.7748 0.7747 0.7747 0.7747 0.7747 0.7747 0.7747 0.7747 0.7747 0.7747 0.7747 0.7747 0.7747 0.7747 0.7747 0.7747 0.7747 0.7747 0.7747 
0.7748 0.7748 0.7748 0.7747 0.7747 0.7747 0.7747 0.7747 0.7747 0.7747 0.7747 0.7747 0.7747 0.7747 0.7747 0.7747 0.7747 0.7747 0.7747 0.7747 0.7747 
0.7748 0.7748 0.7748 0.7747 0.7747 0.7747 0.7747 0.7747 0.7747 0.7747 0.7747 0.7747 0.7747 0.7747 0.7747 0.7747 0.7747 0.7747 0.7747 0.7747 0.7747 
0.7748 0.7748 0.7748 0.7747 0.7747 0.7747 0.7747 0.7747 0.7747 0.7747 0.7747 0.7747 0.7747 0.7747 0.7747 0.7747 0.7747 0.7747 0.7747 0.7747 0.7747 
0.7748 0.7748 0.7748 0.7747 0.7747 0.7747 0.7747 0.7747 0.7747 0.7747 0.7747 0.7747 0.7747 0.7747 0.7747 0.7747 0.7747 0.7747 0.7747 0.7747 0.7747 
0.7748 0.7748 0.7748 0.7747 0.7747 0.7747 0.7747 0.7747 0.7747 0.7747 0.7747 0.7747 0.7747 0.7747 0.7747 0.7747 0.7747 0.7747 0.7747 0.7747 0.7747 
0.7748 0.7748 0.7748 0.7747 0.7747 0.7747 0.7747 0.7747 0.7747 0.7747 0.7747 0.7747 0.7747 0.7747 0.7747 0.7747 0.7747 0.7747 0.7747 0.7747 0.7747 
</DataArray>
<DataArray Name="ne" NumberOfComponents="1" format="ascii" type="Float64">
0.9997 0.9997 0.9997 0.9997 0.9997 0.9997 0.9997 0.9997 0.9997 0.9997 0.9997 0.9997 0.9997 0.9997 0.9997 0.9997 0.9997 0.9997 0.9997 0.9997 0.9997 
0.9997 0.9997 0.9997 0.9997 0.9997 0.9997 0.9997 0.9997 0.9997 0.9997 0.9997 0.9997 0.9997 0.9997 0.9997 0.9997 0.9997 0.9997 0.9997 0.9997 0.9997 
0.9997 0.9997 0.9997 0.9997 0.9997 0.9997 0.9997 0.9997 0.9997 0.9997 0.9997 0.9997 0.9997 0.9997 0.9997 0.9997 0.9997 0.9997 0.9997 0.9997 0.9997 
0.9997 0.9997 0.9997 0.9997 0.9997 0.9997 0.9997 0.9997 0.9997 0.9997 0.9997 0.9997 0.9997 0.9997 0.9997 0.9997 0.9997 0.9997 0.9997 0.9997 0.9997 
0.9997 0.9997 0.9997 0.9997 0.9997 0.9997 0.9997 0.9997 0.9997 0.9997 0.9997 0.9997 0.9997 0.9997 0.9997 0.9997 0.9997 0.9997 0.9997 0.9997 0.9997 
0.9997 0.9997 0.9997 0.9997 0.9997 0.9997 0.9997 0.9997 0.9997 0.9997 0.9997 0.9997 0.9997 0.9997 0.9997 0.9997 0.9997 0.9997 0.9997 0.9997 0.9997 
0.9997 0.9997 0.9997 0.9997 0.9997 0.9997 0.9997 0.9997 0.9997 0.9997 0.9997 0.9997 0.9997 0.9997 0.9997 0.9997 0.9997 0.9997 0.9997 0.9997 0.9997 
0.9997 0.9997 0.9997 0.9997 0.9997 0.9997 0.9997 0.9997 0.9997 0.9997 0.9997 0.9997 0.9997 0.9997 0.9997 0.9997 0.9997 0.9997 0.9997 0.9997 0.9997 
0.9997 0.9997 0.9997 0.9997 0.9997 0.9997 0.9997 0.9997 0.9997 0.9997 0.9997 0.9997 0.9997 0.9997 0.9997 0.9997 0.9997 0.9997 0.9997 0.9997 0.9997 
0.9997 0.9997 0.9997 0.9997 0.9997 0.9997 0.9997 0.9997 0.9997 0.9997 0.9997 0.9997 0.9997 0.9997 0.9997 0.9997 0.9997 0.9997 0.9997 0.9997 0.9997 
0.9997 0.9997 0.9997 0.9997 0.9997 0.9997 0.9997 0.9997 0.9997 0.9997 0.9997 0.9997 0.9997 0.9997 0.9997 0.9997 0.9997 0.9997 0.9997 0.9997 0.9997 
0.9997 0.9997 0.9997 0.9997 0.9997 0.9997 0.9997 0.9997 0.9997 0.9997 0.9997 0.9997 0.9997 0.9997 0.9997 0.9997 0.9997 0.9997 0.9997 0.9997 0.9997 
0.9997 0.9997 0.9997 0.9997 0.9997 0.9997 0.9997 0.9997 0.9997 0.9997 0.9997 0.9997 0.9997 0.9997 0.9997 0.9997 0.9997 0.9997 0.9997 0.9997 0.9997 
0.9997 0.9997 0.9997 0.9997 0.9997 0.9997 0.9997 0.9997 0.9997 0.9997 0.9997 0.9997 0.9997 0.9997 0.9997 0.9997 0.9997 0.9997 0.9997 0.9997 0.9997 
0.9997 0.9997 0.9997 0.9997 0.9997 0.9997 0.9997 0.9997 0.9997 0.9997 0.9997 0.9997 0.9997 0.9997 0.9997 0.9997 0.9997 0.9997 0.9997 0.9997 0.9997 
0.9997 0.9997 0.9997 0.9997 0.9997 0.9997 0.9997 0.9997 0.9997 0.9997 0.9997 0.9997 0.9997 0.9997 0.9997 0.9997 0.9997 0.9997 0.9997 0.9997 0.9997 
0.9997 0.9997 0.9997 0.9997 0.9997 0.9997 0.9997 0.9997 0.9997 0.9997 0.9997 0.9997 0.9997 0.9997 0.9997 0.9997 0.9997 0.9997 0.9997 0.9997 0.9997 
0.9997 0.9997 0.9997 0.9997 0.9997 0.9997 0.9997 0.9997 0.9997 0.9997 0.9997 0.9997 0.9997 0.9997 0.9997 0.9997 0.9997 0.9997 0.9997 0.9997 0.9997 
0.9997 0.9997 0.9997 0.9997 0.9997 0.9997 0.9997 0.9997 0.9997 0.9997 0.9997 0.9997 0.9997 0.9997 0.9997 0.9997 0.9997 0.9997 0.9997 0.9997 0.9997 
0.9997 0.9997 0.9997 0.9997 0.9997 0.9997 0.9997 0.9997 0.9997 0.9997 0.9997 0.9997 0.9997 0.9997 0.9997 0.9997 0.9997 0.9997 0.9997 0.9997 0.9997 
0.9997 0.9997 0.9997 0.9997 0.9997 0.9997 0.9997 0.9997 0.9997 0.9997 0.9997 0.9997 0.9997 0.9997 0.9997 0.9997 0.9997 0.9997 0.9997 0.9997 0.9997 
0.9997 0.9997 0.9997 0.9997 0.9997 0.9997 0.9997 0.9997 0.9997 0.9997 0.9997 0.9997 0.9997 0.9997 0.9997 0.9997 0.9997 0.9997 0.9997 0.9997 0.9997 
0.9997 0.9997 0.9997 0.9997 0.9997 0.9997 0.9997 0.9997 0.9997 0.9997 0.9997 0.9997 0.9997 0.9997 0.9997 0.9997 0.9997 0.9997 0.9997 0.9997 0.9997 
0.9997 0.9997 0.9997 0.9997 0.9997 0.9997 0.9997 0.9997 0.9997 0.9997 0.9997 0.9997 0.9997 0.9997 0.9997 0.9997 0.9997 0.9997 0.9997 0.9997 0.9997 
0.9997 0.9997 0.9997 0.9997 0.9997 0.9997 0.9997 0.9997 0.9997 0.9997 0.9997 0.9997 0.9997 0.9997 0.9997 0.9997 0.9997 0.9997 0.9997 0.9997 0.9997 
0.9997 0.9997 0.9997 0.9997 0.9997 0.9997 0.9997 0.9997 0.9997 0.9997 0.9997 0.9997 0.9997 0.9997 0.9997 0.9997 0.9997 0.9997 0.9997 0.9997 0.9997 
0.9997 0.9997 0.9997 0.9997 0.9997 0.9997 0.9997 0.9997 0.9997 0.9997 0.9997 0.9997 0.9997 0.9997 0.9997 0.9997 0.9997 0.9997 0.9997 0.9997 0.9997 
0.9997 0.9997 0.9997 0.9997 0.9997 0.9997 0.9997 0.9997 0.9997 0.9997 0.9997 0.9997 0.9997 0.9997 0.9997 0.9997 0.9997 0.9997 0.9997 0.9997 0.9997 
0.9997 0.9997 0.9997 0.9997 0.9997 0.9997 0.9997 0.9997 0.9997 0.9997 0.9997 0.9997 0.9997 0.9997 0.9997 0.9997 0.9997 0.9997 0.9997 0.9997 0.9997 
0.9997 0.9997 0.9997 0.9997 0.9997 0.9997 0.9997 0.9997 0.9997 0.9997 0.9997 0.9997 0.9997 0.9997 0.9997 0.9997 0.9997 0.9997 0.9997 0.9997 0.9997 
0.9997 0.9997 0.9997 0.9997 0.9997 0.9997 0.9997 0.9997 0.9997 0.9997 0.9997 0.9997 0.9997 0.9997 0.9997 0.9997 0.9997 0.9997 0.9997 0.9997 0.9997 
0.9997 0.9997 0.9997 0.9997 0.9997 0.9997 0.9997 0.9997 0.9997 0.9997 0.9997 0.9997 0.9997 0.9997 0.9997 0.9997 0.9997 0.9997 0.9997 0.9997 0.9997 
0.9997 0.9997 0.9997 0.9997 0.9997 0.9997 0.9997 0.9997 0.9997 0.9997 0.9997 0.9997 0.9997 0.9997 0.9997 0.9997 0.9997 0.9997 0.9997 0.9997 0.9997 
0.9997 0.9997 0.9997 0.9997 0.9997 0.9997 0.9997 0.9997 0.9997 0.9997 0.9997 0.9997 0.9997 0.9997 0.9997 0.9997 0.9997 0.9997 0.9997 0.9997 0.9997 
0.9997 0.9997 0.9997 0.9997 0.9997 0.9997 0.9997 0.9997 0.9997 0.9997 0.9997 0.9997 0.9997 0.9997 0.9997 0.9997 0.9997 0.9997 0.9997 0.9997 0.9997 
0.9997 0.9997 0.9997 0.9997 0.9997 0.9997 0.9997 0.9997 0.9997 0.9997 0.9997 0.9997 0.9997 0.9997 0.9997 0.9997 0.9997 0.9997 0.9997 0.9997 0.9997 
0.9997 0.9997 0.9997 0.9997 0.9997 0.9997 0.9997 0.9997 0.9997 0.9997 0.9997 0.9997 0.9997 0.9997 0.9997 0.9997 0.9997 0.9997 0.9997 0.9997 0.9997 
0.9997 0.9997 0.9997 0.9997 0.9997 0.9997 0.9997 0.9997 0.9997 0.9997 0.9997 0.9997 0.9997 0.9997 0.9997 0.9997 0.9997 0.9997 0.9997 0.9997 0.9997 
0.9997 0.9997 0.9997 0.9997 0.9997 0.9997 0.9997 0.9997 0.9997 0.9997 0.9997 0.9997 0.9997 0.9997 0.9997 0.9997 0.9997 0.9997 0.9997 0.9997 0.9997 
0.9997 0.9997 0.9997 0.9997 0.9997 0.9997 0.9997 0.9997 0.9997 0.9997 0.9997 0.9997 0.9997 0.9997 0.9997 0.9997 0.9997 0.9997 0.9997 0.9997 0.9997 
0.9997 0.9997 0.9997 0.9997 0.9997 0.9997 0.9997 0.9997 0.9997 0.9997 0.9997 0.9997 0.9997 0.9997 0.9997 0.9997 0.9997 0.9997 0.9997 0.9997 0.9997 
</DataArray>
</PointData>
</Piece>
</ImageData>
</VTKFile>
