<VTKFile type="ImageData">
<ImageData Origin="0 -10 0" Spacing="0.5 0.5 1" WholeExtent="0 20 0 40 0 0">
<Piece Extent="0 20 0 40 0 0">
<PointData>
<DataArray Name="f" NumberOfComponents="1" format="ascii" type="Float64">
0.01532 0.01531 0.01531 0.01531 0.01531 0.01532 0.01532 0.01532 0.01533 0.01533 0.01534 0.01534 0.01534 0.01535 0.01535 0.01535 0.01535 0.01535 0.01535 0.01534 0.01532 
0.009452 0.00944 0.009436 0.009439 0.009441 0.009444 0.009446 0.009449 0.009451 0.009454 0.009457 0.009459 0.009462 0.009464 0.009466 0.009467 0.009469 0.00947 0.009469 0.009463 0.009452 
0.005571 0.005563 0.005559 0.005561 0.005562 0.005564 0.005565 0.005567 0.005569 0.00557 0.005572 0.005574 0.005575 0.005577 0.005578 0.005579 0.00558 0.005581 0.005581 0.005578 0.005571 
0.003138 0.003132 0.003129 0.003129 0.00313 0.003131 0.003132 0.003133 0.003134 0.003135 0.003136 0.003137 0.003138 0.003139 0.00314 0.003141 0.003142 0.003142 0.003143 0.003142 0.003138 
0.001688 0.001684 0.001682 0.001682 0.001682 0.001683 0.001683 0.001684 0.001685 0.001685 0.001686 0.001686 0.001687 0.001687 0.001688 0.001689 0.001689 0.001689 0.00169 0.00169 0.001688 
0.0008666 0.0008649 0.0008632 0.0008628 0.0008631 0.0008634 0.0008637 0.0008641 0.0008644 0.0008647 0.000865 0.0008654 0.0008657 0.000866 0.0008663 0.0008666 0.0008669 0.0008672 0.0008674 0.0008675 0.0008666 
0.0004249 0.0004241 0.0004231 0.0004227 0.0004228 0.0004229 0.0004231 0.0004233 0.0004235 0.0004236 0.0004238 0.000424 0.0004242 0.0004243 0.0004245 0.0004247 0.0004248 0.000425 0.0004251 0.0004252 0.0004249 
0.0001993 0.000199 0.0001985 0.0001982 0.0001982 0.0001982 0.0001983 0.0001984 0.0001985 0.0001986 0.0001987 0.0001988 0.0001989 0.000199 0.000199 0.0001991 0.0001992 0.0001993 0.0001994 0.0001994 0.0001993 
9.086e-05 9.073e-05 9.054e-05 9.035e-05 9.029e-05 9.031e-05 9.035e-05 9.039e-05 9.044e-05 9.048e-05 9.052e-05 9.056e-05 9.06e-05 9.065e-05 9.069e-05 9.073e-05 9.077e-05 9.081e-05 9.085e-05 9.088e-05 9.086e-05 
4.396e-05 4.392e-05 4.386e-05 4.377e-05 4.373e-05 4.373e-05 4.374e-05 4.376e-05 4.377e-05 4.379e-05 4.381e-05 4.382e-05 4.384e-05 4.386e-05 4.388e-05 4.389e-05 4.391e-05 4.393e-05 4.394e-05 4.396e-05 4.396e-05 
3.137e-05 3.137e-05 3.136e-05 3.134e-05 3.133e-05 3.132e-05 3.132e-05 3.133e-05 3.133e-05 3.133e-05 3.133e-05 3.134e-05 3.134e-05 3.134e-05 3.135e-05 3.135e-05 3.135e-05 3.136e-05 3.136e-05 3.136e-05 3.137e-05 
4.503e-05 4.503e-05 4.502e-05 4.501e-05 4.5e-05 4.499e-05 4.498e-05 4.497e-05 4.495e-05 4.494e-05 4.493e-05 4.492e-05 4.491e-05 4.49e-05 4.49e-05 4.489e-05 4.489e-05 4.491e-05 4.496e-05 4.499e-05 4.503e-05 
9.263e-05 9.266e-05 9.263e-05 9.26e-05 9.257e-05 9.254e-05 9.251e-05 9.248e-05 9.245e-05 9.242e-05 9.239e-05 9.236e-05 9.233e-05 9.231e-05 9.228e-05 9.226e-05 9.225e-05 9.228e-05 9.239e-05 9.248e-05 9.263e-05 
0.0002004 0.0002005 0.0002005 0.0002004 0.0002003 0.0002003 0.0002002 0.0002001 0.0002001 0.0002 0.0001999 0.0001999 0.0001998 0.0001997 0.0001997 0.0001996 0.0001996 0.0001996 0.0001998 0.0002 0.0002004 
0.0004213 0.0004217 0.0004217 0.0004215 0.0004214 0.0004213 0.0004211 0.000421 0.0004209 0.0004207 0.0004206 0.0004205 0.0004203 0.0004202 0.0004201 0.00042 0.0004199 0.0004198 0.0004201 0.0004205 0.0004213 
0.0008494 0.0008506 0.0008506 0.0008503 0.0008501 0.0008498 0.0008496 0.0008493 0.0008491 0.0008488 0.0008485 0.0008483 0.000848 0.0008478 0.0008475 0.0008473 0.000847 0.0008468 0.0008471 0.0008478 0.0008494 
0.001639 0.001642 0.001642 0.001641 0.001641 0.001641 0.00164 0.00164 0.001639 0.001639 0.001638 0.001638 0.001637 0.001637 0.001636 0.001636 0.001635 0.001635 0.001635 0.001636 0.001639 
0.003025 0.003031 0.003032 0.003032 0.003031 0.00303 0.00303 0.003029 0.003028 0.003027 0.003026 0.003025 0.003025 0.003024 0.003023 0.003022 0.003021 0.003021 0.00302 0.003021 0.003025 
0.005345 0.005355 0.005358 0.005358 0.005357 0.005356 0.005355 0.005354 0.005352 0.005351 0.00535 0.005348 0.005347 0.005345 0.005344 0.005343 0.005341 0.00534 0.005339 0.00534 0.005345 
0.009039 0.009053 0.009059 0.009062 0.009062 0.00906 0.009058 0.009056 0.009054 0.009052 0.00905 0.009048 0.009046 0.009043 0.009041 0.009039 0.009037 0.009035 0.009033 0.009034 0.009039 
0.01463 0.01465 0.01466 0.01467 0.01467 0.01467 0.01467 0.01466 0.01466 0.01466 0.01465 0.01465 0.01465 0.01464 0.01464 0.01464 0.01463 0.01463 0.01463 0.01463 0.01463 
0.02268 0.0227 0.02272 0.02273 0.02273 0.02273 0.02273 0.02272 0.02272 0.02272 0.02271 0.02271 0.0227 0.0227 0.02269 0.02269 0.02268 0.02268 0.02268 0.02268 0.02268 
0.03372 0.03372 0.03372 0.03372 0.03371 0.0337 0.0337 0.03369 0.03368 0.03368 0.03367 0.03367 0.03366 0.03365 0.03365 0.03364 0.03365 0.03367 0.03369 0.03371 0.03372 
0.04789 0.0479 0.0479 0.04789 0.04788 0.04788 0.04787 0.04786 0.04785 0.04785 0.04784 0.04783 0.04782 0.04781 0.04781 0.0478 0.0478 0.04781 0.04784 0.04787 0.04789 
0.06513 0.06514 0.06514 0.06513 0.06512 0.06512 0.06511 0.0651 0.06509 0.06508 0.06507 0.06506 0.06505 0.06504 0.06503 0.06502 0.06502 0.06503 0.06506 0.0651 0.06513 
0.0848 0.08481 0.08481 0.08481 0.0848 0.08479 0.08479 0.08478 0.08476 0.08475 0.08474 0.08473 0.08472 0.08471 0.0847 0.08469 0.08468 0.08468 0.08471 0.08476 0.0848 
0.1057 0.1057 0.1057 0.1057 0.1057 0.1057 0.1057 0.1057 0.1057 0.1057 0.1057 0.1057 0.1057 0.1056 0.1056 0.1056 0.1056 0.1056 0.1056 0.1057 0.1057 
0.1262 0.1262 0.1262 0.1262 0.1262 0.1262 0.1262 0.1262 0.1262 0.1262 0.1262 0.1262 0.1262 0.1261 0.1261 0.1261 0.1261 0.1261 0.1261 0.1262 0.1262 
0.1443 0.1443 0.1443 0.1443 0.1443 0.1443 0.1443 0.1443 0.1443 0.1443 0.1442 0.1442 0.1442 0.1442 0.1442 0.1442 0.1442 0.1442 0.1442 0.1442 0.1443 
0.1579 0.1579 0.1579 0.1579 0.1579 0.1579 0.1579 0.1579 0.1579 0.1579 0.1579 0.1579 0.1579 0.1579 0.1579 0.1579 0.1579 0.1579 0.1579 0.1579 0.1579 
0.1655 0.1655 0.1655 0.1655 0.1655 0.1655 0.1655 0.1655 0.1655 0.1655 0.1655 0.1655 0.1655 0.1655 0.1655 0.1655 0.1655 0.1655 0.1655 0.1655 0.1655 
0.1661 0.1661 0.1661 0.1661 0.166 0.166 0.166 0.166 0.166 0.166 0.166 0.166 0.1661 0.1661 0.1661 0.1661 0.1661 0.1661 0.1661 0.1661 0.1661 
0.1595 0.1595 0.1595 0.1595 0.1595 0.1595 0.1595 0.1595 0.1595 0.1595 0.1595 0.1595 0.1595 0.1595 0.1595 0.1595 0.1595 0.1595 0.1595 0.1595 0.1595 
0.1467 0.1467 0.1466 0.1466 0.1466 0.1466 0.1467 0.1467 0.1467 0.1467 0.1467 0.1467 0.1467 0.1467 0.1467 0.1467 0.1467 0.1467 0.1467 0.1467 0.1467 
0.1291 0.1291 0.1291 0.1291 0.1291 0.1291 0.1291 0.1291 0.1291 0.1291 0.1291 0.1291 0.1291 0.1291 0.1291 0.1292 0.1292 0.1292 0.1292 0.1292 0.1291 
0.1088 0.1087 0.1087 0.1087 0.1087 0.1087 0.1087 0.1087 0.1087 0.1087 0.1088 0.1088 0.1088 0.1088 0.1088 0.1088 0.1088 0.1088 0.1088 0.1088 0.1088 
0.08769 0.08765 0.08762 0.08761 0.08761 0.08762 0.08763 0.08764 0.08764 0.08765 0.08766 0.08767 0.08768 0.08769 0.0877 0.08772 0.08773 0.08774 0.08774 0.08774 0.08769 
0.06764 0.0676 0.06757 0.06756 0.06756 0.06757 0.06758 0.06759 0.0676 0.06761 0.06762 0.06763 0.06764 0.06765 0.06766 0.06766 0.06767 0.06768 0.06768 0.06768 0.06764 
0.04992 0.04988 0.04986 0.04984 0.04984 0.04985 0.04986 0.04986 0.04987 0.04988 0.04989 0.0499 0.0499 0.04991 0.04992 0.04993 0.04994 0.04994 0.04995 0.04995 0.04992 
0.03524 0.0352 0.03519 0.03517 0.03517 0.03517 0.03518 0.03518 0.03519 0.0352 0.0352 0.03521 0.03522 0.03522 0.03523 0.03524 0.03524 0.03525 0.03525 0.03525 0.03524 
0.02378 0.02376 0.02375 0.02373 0.02373 0.02373 0.02374 0.02374 0.02375 0.02375 0.02376 0.02376 0.02377 0.02377 0.02378 0.02378 0.02379 0.02379 0.02379 0.02379 0.02378 
</DataArray>
<DataArray Name="E" NumberOfComponents="1" format="ascii" type="Float64">
-43.89 -43.89 -43.89 -43.89 -43.89 -43.89 -43.89 -43.89 -43.89 -43.89 -43.89 -43.89 -43.89 -43.89 -43.89 -43.89 -43.89 -43.89 -43.89 -43.89 -43.89 
-43.89 -43.89 -43.89 -43.89 -43.89 -43.89 -43.89 -43.89 -43.89 -43.89 -43.89 -43.89 -43.89 -43.89 -43.89 -43.89 -43.89 -43.89 -43.89 -43.89 -43.89 
-43.89 -43.89 -43.89 -43.89 -43.89 -43.89 -43.89 -43.89 -43.89 -43.89 -43.89 -43.89 -43.89 -43.89 -43.89 -43.89 -43.89 -43.89 -43.89 -43.89 -43.89 
-43.89 -43.89 -43.89 -43.89 -43.89 -43.89 -43.89 -43.89 -43.89 -43.89 -43.89 -43.89 -43.89 -43.89 -43.89 -43.89 -43.89 -43.89 -43.89 -43.89 -43.89 
-43.89 -43.89 -43.89 -43.89 -43.89 -43.89 -43.89 -43.89 -43.89 -43.89 -43.89 -43.89 -43.89 -43.89 -43.89 -43.89 -43.89 -43.89 -43.89 -43.89 -43.89 
-43.89 -43.89 -43.89 -43.89 -43.89 -43.89 -43.89 -43.89 -43.89 -43.89 -43.89 -43.89 -43.89 -43.89 -43.89 -43.89 -43.89 -43.89 -43.89 -43.89 -43.89 
-43.89 -43.89 -43.89 -43.89 -43.89 -43.89 -43.89 -43.89 -43.89 -43.89 -43.89 -43.89 -43.89 -43.89 -43.89 -43.89 -43.89 -43.89 -43.89 -43.89 -43.89 
-43.89 -43.89 -43.89 -43.89 -43.89 -43.89 -43.89 -43.89 -43.89 -43.89 -43.89 -43.89 -43.89 -43.89 -43.89 -43.89 -43.89 -43.89 -43.89 -43.89 -43.89 
-43.89 -43.89 -43.89 -43.89 -43.89 -43.89 -43.89 -43.89 -43.89 -43.89 -43.89 -43.89 -43.89 -43.89 -43.89 -43.89 -43.89 -43.89 -43.89 -43.89 -43.89 
-43.89 -43.89 -43.89 -43.89 -43.89 -43.89 -43.89 -43.89 -43.89 -43.89 -43.89 -43.89 -43.89 -43.89 -43.89 -43.89 -43.89 -43.89 -43.89 -43.89 -43.89 
-43.89 -43.89 -43.89 -43.89 -43.89 -43.89 -43.89 -43.89 -43.89 -43.89 -43.89 -43.89 -43.89 -43.89 -43.89 -43.89 -43.89 -43.89 -43.89 -43.89 -43.89 
-43.89 -43.89 -43.89 -43.89 -43.89 -43.89 -43.89 -43.89 -43.89 -43.89 -43.89 -43.89 -43.89 -43.89 -43.89 -43.89 -43.89 -43.89 -43.89 -43.89 -43.89 
-43.89 -43.89 -43.89 -43.89 -43.89 -43.89 -43.89 -43.89 -43.89 -43.89 -43.89 -43.89 -43.89 -43.89 -43.89 -43.89 -43.89 -43.89 -43.89 -43.89 -43.89 
-43.89 -43.89 -43.89 -43.89 -43.89 -43.89 -43.89 -43.89 -43.89 -43.89 -43.89 -43.89 -43.89 -43.89 -43.89 -43.89 -43.89 -43.89 -43.89 -43.89 -43.89 
-43.89 -43.89 -43.89 -43.89 -43.89 -43.89 -43.89 -43.89 -43.89 -43.89 -43.89 -43.89 -43.89 -43.89 -43.89 -43.89 -43.89 -43.89 -43.89 -43.89 -43.89 
-43.89 -43.89 -43.89 -43.89 -43.89 -43.89 -43.89 -43.89 -43.89 -43.89 -43.89 -43.89 -43.89 -43.89 -43.89 -43.89 -43.89 -43.89 -43.89 -43.89 -43.89 
-43.89 -43.89 -43.89 -43.89 -43.89 -43.89 -43.89 -43.89 -43.89 -43.89 -43.89 -43.89 -43.89 -43.89 -43.89 -43.89 -43.89 -43.89 -43.89 -43.89 -43.89 
-43.89 -43.89 -43.89 -43.89 -43.89 -43.89 -43.89 -43.89 -43.89 -43.89 -43.89 -43.89 -43.89 -43.89 -43.89 -43.89 -43.89 -43.89 -43.89 -43.89 -43.89 
-43.89 -43.89 -43.89 -43.89 -43.89 -43.89 -43.89 -43.89 -43.89 -43.89 -43.89 -43.89 -43.89 -43.89 -43.89 -43.89 -43.89 -43.89 -43.89 -43.89 -43.89 
-43.89 -43.89 -43.89 -43.89 -43.89 -43.89 -43.89 -43.89 -43.89 -43.89 -43.89 -43.89 -43.89 -43.89 -43.89 -43.89 -43.89 -43.89 -43.89 -43.89 -43.89 
-43.89 -43.89 -43.89 -43.89 -43.89 -43.89 -43.89 -43.89 -43.89 -43.89 -43.89 -43.89 -43.89 -43.89 -43.89 -43.89 -43.89 -43.89 -43.89 -43.89 -43.89 
-43.89 -43.89 -43.89 -43.89 -43.89 -43.89 -43.89 -43.89 -43.89 -43.89 -43.89 -43.89 -43.89 -43.89 -43.89 -43.89 -43.89 -43.89 -43.89 -43.89 -43.89 
-43.89 -43.89 -43.89 -43.89 -43.89 -43.89 -43.89 -43.89 -43.89 -43.89 -43.89 -43.89 -43.89 -43.89 -43.89 -43.89 -43.89 -43.89 -43.89 -43.89 -43.89 
-43.89 -43.89 -43.89 -43.89 -43.89 -43.89 -43.89 -43.89 -43.89 -43.89 -43.89 -43.89 -43.89 -43.89 -43.89 -43.89 -43.89 -43.89 -43.89 -43.89 -43.89 
-43.89 -43.89 -43.89 -43.89 -43.89 -43.89 -43.89 -43.89 -43.89 -43.89 -43.89 -43.89 -43.89 -43.89 -43.89 -43.89 -43.89 -43.89 -43.89 -43.89 -43.89 
-43.89 -43.89 -43.89 -43.89 -43.89 -43.89 -43.89 -43.89 -43.89 -43.89 -43.89 -43.89 -43.89 -43.89 -43.89 -43.89 -43.89 -43.89 -43.89 -43.89 -43.89 
-43.89 -43.89 -43.89 -43.89 -43.89 -43.89 -43.89 -43.89 -43.89 -43.89 -43.89 -43.89 -43.89 -43.89 -43.89 -43.89 -43.89 -43.89 -43.89 -43.89 -43.89 
-43.89 -43.89 -43.89 -43.89 -43.89 -43.89 -43.89 -43.89 -43.89 -43.89 -43.89 -43.89 -43.89 -43.89 -43.89 -43.89 -43.89 -43.89 -43.89 -43.89 -43.89 
-43.89 -43.89 -43.89 -43.89 -43.89 -43.89 -43.89 -43.89 -43.89 -43.89 -43.89 -43.89 -43.89 -43.89 -43.89 -43.89 -43.89 -43.89 -43.89 -43.89 -43.89 
-43.89 -43.89 -43.89 -43.89 -43.89 -43.89 -43.89 -43.89 -43.89 -43.89 -43.89 -43.89 -43.89 -43.89 -43.89 -43.89 -43.89 -43.89 -43.89 -43.89 -43.89 
-43.89 -43.89 -43.89 -43.89 -43.89 -43.89 -43.89 -43.89 -43.89 -43.89 -43.89 -43.89 -43.89 -43.89 -43.89 -43.89 -43.89 -43.89 -43.89 -43.89 -43.89 
-43.89 -43.89 -43.89 -43.89 -43.89 -43.89 -43.89 -43.89 -43.89 -43.89 -43.89 -43.89 -43.89 -43.89 -43.89 -43.89 -43.89 -43.89 -43.89 -43.89 -43.89 
-43.89 -43.89 -43.89 -43.89 -43.89 -43.89 -43.89 -43.89 -43.89 -43.89 -43.89 -43.89 -43.89 -43.89 -43.89 -43.89 -43.89 -43.89 -43.89 -43.89 -43.89 
-43.89 -43.89 -43.89 -43.89 -43.89 -43.89 -43.89 -43.89 -43.89 -43.89 -43.89 -43.89 -43.89 -43.89 -43.89 -43.89 -43.89 -43.89 -43.89 -43.89 -43.89 
-43.89 -43.89 -43.89 -43.89 -43.89 -43.89 -43.89 -43.89 -43.89 -43.89 -43.89 -43.89 -43.89 -43.89 -43.89 -43.89 -43.89 -43.89 -43.89 -43.89 -43.89 
-43.89 -43.89 -43.89 -43.89 -43.89 -43.89 -43.89 -43.89 -43.89 -43.89 -43.89 -43.89 -43.89 -43.89 -43.89 -43.89 -43.89 -43.89 -43.89 -43.89 -43.89 
-43.89 -43.89 -43.89 -43.89 -43.89 -43.89 -43.89 -43.89 -43.89 -43.89 -43.89 -43.89 -43.89 -43.89 -43.89 -43.89 -43.89 -43.89 -43.89 -43.89 -43.89 
-43.89 -43.89 -43.89 -43.89 -43.89 -43.89 -43.89 -43.89 -43.89 -43.89 -43.89 -43.89 -43.89 -43.89 -43.89 -43.89 -43.89 -43.89 -43.89 -43.89 -43.89 
-43.89 -43.89 -43.89 -43.89 -43.89 -43.89 -43.89 -43.89 -43.89 -43.89 -43.89 -43.89 -43.89 -43.89 -43.89 -43.89 -43.89 -43.89 -43.89 -43.89 -43.89 
-43.89 -43.89 -43.89 -43.89 -43.89 -43.89 -43.89 -43.89 -43.89 -43.89 -43.89 -43.89 -43.89 -43.89 -43.89 -43.89 -43.89 -43.89 -43.89 -43.89 -43.89 
-43.89 -43.89 -43.89 -43.89 -43.89 -43.89 -43.89 -43.89 -43.89 -43.89 -43.89 -43.89 -43.89 -43.89 -43.89 -43.89 -43.89 -43.89 -43.89 -43.89 -43.89 
</DataArray>
<DataArray Name="ne" NumberOfComponents="1" format="ascii" type="Float64">
1 1 1 1 1 1 1 1 1 1 1 1 0.9999 0.9999 0.9999 0.9999 0.9999 1 1 1 1 
1 1 1 1 1 1 1 1 1 1 1 1 0.9999 0.9999 0.9999 0.9999 0.9999 1 1 1 1 
1 1 1 1 1 1 1 1 1 1 1 1 0.9999 0.9999 0.9999 0.9999 0.9999 1 1 1 1 
1 1 1 1 1 1 1 1 1 1 1 1 0.9999 0.9999 0.9999 0.9999 0.9999 1 1 1 1 
1 1 1 1 1 1 1 1 1 1 1 1 0.9999 0.9999 0.9999 0.9999 0.9999 1 1 1 1 
1 1 1 1 1 1 1 1 1 1 1 1 0.9999 0.9999 0.9999 0.9999 0.9999 1 1 1 1 
1 1 1 1 1 1 1 1 1 1 1 1 0.9999 0.9999 0.9999 0.9999 0.9999 1 1 1 1 
1 1 1 1 1 1 1 1 1 1 1 1 0.9999 0.9999 0.9999 0.9999 0.9999 1 1 1 1 
1 1 1 1 1 1 1 1 1 1 1 1 0.9999 0.9999 0.9999 0.9999 0.9999 1 1 1 1 
1 1 1 1 1 1 1 1 1 1 1 1 0.9999 0.9999 0.9999 0.9999 0.9999 1 1 1 1 
1 1 1 1 1 1 1 1 1 1 1 1 0.9999 0.9999 0.9999 0.9999 0.9999 1 1 1 1 
1 1 1 1 1 1 1 1 1 1 1 1 0.9999 0.9999 0.9999 0.9999 0.9999 1 1 1 1 
1 1 1 1 1 1 1 1 1 1 1 1 0.9999 0.9999 0.9999 0.9999 0.9999 1 1 1 1 
1 1 1 1 1 1 1 1 1 1 1 1 0.9999 0.9999 0.9999 0.9999 0.9999 1 1 1 1 
1 1 1 1 1 1 1 1 1 1 1 1 0.9999 0.9999 0.9999 0.9999 0.9999 1 1 1 1 
1 1 1 1 1 1 1 1 1 1 1 1 0.9999 0.9999 0.9999 0.9999 0.9999 1 1 1 1 
1 1 1 1 1 1 1 1 1 1 1 1 0.9999 0.9999 0.9999 0.9999 0.9999 1 1 1 1 
1 1 1 1 1 1 1 1 1 1 1 1 0.9999 0.9999 0.9999 0.9999 0.9999 1 1 1 1 
1 1 1 1 1 1 1 1 1 1 1 1 0.9999 0.9999 0.9999 0.9999 0.9999 1 1 1 1 
1 1 1 1 1 1 1 1 1 1 1 1 0.9999 0.9999 0.9999 0.9999 0.9999 1 1 1 1 
1 1 1 1 1 1 1 1 1 1 1 1 0.9999 0.9999 0.9999 0.9999 0.9999 1 1 1 1 
1 1 1 1 1 1 1 1 1 1 1 1 0.9999 0.9999 0.9999 0.9999 0.9999 1 1 1 1 
1 1 1 1 1 1 1 1 1 1 1 1 0.9999 0.9999 0.9999 0.9999 0.9999 1 1 1 1 
1 1 1 1 1 1 1 1 1 1 1 1 0.9999 0.9999 0.9999 0.9999 0.9999 1 1 1 1 
1 1 1 1 1 1 1 1 1 1 1 1 0.9999 0.9999 0.9999 0.9999 0.9999 1 1 1 1 
1 1 1 1 1 1 1 1 1 1 1 1 0.9999 0.9999 0.9999 0.9999 0.9999 1 1 1 1 
1 1 1 1 1 1 1 1 1 1 1 1 0.9999 0.9999 0.9999 0.9999 0.9999 1 1 1 1 
1 1 1 1 1 1 1 1 1 1 1 1 0.9999 0.9999 0.9999 0.9999 0.9999 1 1 1 1 
1 1 1 1 1 1 1 1 1 1 1 1 0.9999 0.9999 0.9999 0.9999 0.9999 1 1 1 1 
1 1 1 1 1 1 1 1 1 1 1 1 0.9999 0.9999 0.9999 0.9999 0.9999 1 1 1 1 
1 1 1 1 1 1 1 1 1 1 1 1 0.9999 0.9999 0.9999 0.9999 0.9999 1 1 1 1 
1 1 1 1 1 1 1 1 1 1 1 1 0.9999 0.9999 0.9999 0.9999 0.9999 1 1 1 1 
1 1 1 1 1 1 1 1 1 1 1 1 0.9999 0.9999 0.9999 0.9999 0.9999 1 1 1 1 
1 1 1 1 1 1 1 1 1 1 1 1 0.9999 0.9999 0.9999 0.9999 0.9999 1 1 1 1 
1 1 1 1 1 1 1 1 1 1 1 1 0.9999 0.9999 0.9999 0.9999 0.9999 1 1 1 1 
1 1 1 1 1 1 1 1 1 1 1 1 0.9999 0.9999 0.9999 0.9999 0.9999 1 1 1 1 
1 1 1 1 1 1 1 1 1 1 1 1 0.9999 0.9999 0.9999 0.9999 0.9999 1 1 1 1 
1 1 1 1 1 1 1 1 1 1 1 1 0.9999 0.9999 0.9999 0.9999 0.9999 1 1 1 1 
1 1 1 1 1 1 1 1 1 1 1 1 0.9999 0.9999 0.9999 0.9999 0.9999 1 1 1 1 
1 1 1 1 1 1 1 1 1 1 1 1 0.9999 0.9999 0.9999 0.9999 0.9999 1 1 1 1 
1 1 1 1 1 1 1 1 1 1 1 1 0.9999 0.9999 0.9999 0.9999 0.9999 1 1 1 1 
</DataArray>
</PointData>
</Piece>
</ImageData>
</VTKFile>
