<VTKFile type="ImageData">
<ImageData Origin="0 -10 0" Spacing="0.5 0.5 1" WholeExtent="0 20 0 40 0 0">
<Piece Extent="0 20 0 40 0 0">
<PointData>
<DataArray Name="f" NumberOfComponents="1" format="ascii" type="Float64">
0.0005955 0.0005955 0.0005955 0.0005955 0.0005955 0.0005955 0.0005955 0.0005955 0.0005955 0.0005955 0.0005955 0.0005955 0.0005955 0.0005955 0.0005955 0.0005955 0.0005955 0.0005955 0.0005955 0.0005955 0.0005955 
0.00155 0.00155 0.00155 0.00155 0.00155 0.00155 0.00155 0.00155 0.00155 0.00155 0.00155 0.00155 0.00155 0.00155 0.00155 0.00155 0.00155 0.00155 0.00155 0.00155 0.00155 
0.003727 0.003727 0.003727 0.003727 0.003727 0.003726 0.003726 0.003726 0.003726 0.003726 0.003726 0.003726 0.003726 0.003726 0.003726 0.003726 0.003726 0.003726 0.003727 0.003727 0.003727 
0.008271 0.008271 0.008271 0.008271 0.008271 0.008271 0.008271 0.008271 0.008271 0.008271 0.008271 0.008271 0.008271 0.008271 0.008271 0.008271 0.008271 0.008271 0.008271 0.008271 0.008271 
0.01693 0.01693 0.01693 0.01693 0.01693 0.01693 0.01693 0.01693 0.01693 0.01693 0.01693 0.01693 0.01693 0.01693 0.01693 0.01693 0.01693 0.01693 0.01693 0.01693 0.01693 
0.03196 0.03196 0.03196 0.03196 0.03196 0.03196 0.03196 0.03196 0.03196 0.03196 0.03196 0.03196 0.03196 0.03196 0.03196 0.03196 0.03196 0.03196 0.03196 0.03196 0.03196 
0.05552 0.05552 0.05552 0.05552 0.05552 0.05552 0.05552 0.05552 0.05552 0.05552 0.05552 0.05552 0.05552 0.05552 0.05552 0.05552 0.05552 0.05552 0.05552 0.05552 0.05552 
0.08871 0.08871 0.08871 0.08871 0.08871 0.08871 0.08871 0.08871 0.08871 0.08871 0.08871 0.08871 0.08871 0.08871 0.08871 0.08871 0.08871 0.08871 0.08871 0.08871 0.08871 
0.1301 0.1301 0.1301 0.1301 0.1301 0.1301 0.1301 0.1301 0.1301 0.1301 0.1301 0.1301 0.1301 0.1301 0.1301 0.1301 0.1301 0.1301 0.1301 0.1301 0.1301 
0.175 0.175 0.175 0.175 0.175 0.175 0.175 0.175 0.175 0.175 0.175 0.175 0.175 0.175 0.175 0.175 0.175 0.175 0.175 0.175 0.175 
0.2152 0.2152 0.2152 0.2152 0.2152 0.2152 0.2152 0.2152 0.2152 0.2152 0.2152 0.2152 0.2152 0.2152 0.2152 0.2152 0.2152 0.2152 0.2152 0.2152 0.2152 
0.2416 0.2416 0.2416 0.2416 0.2416 0.2416 0.2416 0.2416 0.2416 0.2416 0.2416 0.2416 0.2416 0.2416 0.2416 0.2416 0.2416 0.2416 0.2416 0.2416 0.2416 
0.2469 0.2469 0.2469 0.2469 0.2469 0.2469 0.2469 0.2469 0.2469 0.2469 0.2469 0.2469 0.2469 0.2469 0.2469 0.2469 0.2469 0.2469 0.2469 0.2469 0.2469 
0.229 0.229 0.229 0.229 0.229 0.229 0.229 0.229 0.229 0.229 0.229 0.229 0.229 0.229 0.229 0.229 0.229 0.229 0.229 0.229 0.229 
0.1922 0.1922 0.1922 0.1922 0.1922 0.1922 0.1922 0.1922 0.1922 0.1922 0.1922 0.1922 0.1922 0.1922 0.1922 0.1922 0.1922 0.1922 0.1922 0.1922 0.1922 
0.1455 0.1455 0.1455 0.1455 0.1455 0.1455 0.1455 0.1455 0.1455 0.1455 0.1455 0.1455 0.1455 0.1455 0.1455 0.1455 0.1455 0.1455 0.1455 0.1455 0.1455 
0.09889 0.09889 0.09889 0.09889 0.09889 0.09889 0.09889 0.09889 0.09889 0.09889 0.09889 0.09889 0.09889 0.09889 0.09889 0.09889 0.09889 0.09889 0.09889 0.09889 0.09889 
0.06009 0.06009 0.06009 0.06009 0.06009 0.06009 0.06009 0.06009 0.06009 0.06009 0.06009 0.06009 0.06009 0.06009 0.06009 0.06009 0.06009 0.06009 0.06009 0.06009 0.06009 
0.03249 0.03249 0.03249 0.03249 0.03249 0.03249 0.03249 0.03249 0.03249 0.03249 0.03249 0.03249 0.03249 0.03249 0.03249 0.03249 0.03249 0.03249 0.03249 0.03249 0.03249 
0.01555 0.01555 0.01555 0.01555 0.01555 0.01555 0.01555 0.01555 0.01555 0.01555 0.01555 0.01555 0.01555 0.01555 0.01555 0.01555 0.01555 0.01555 0.01555 0.01555 0.01555 
0.006543 0.006543 0.006543 0.006543 0.006543 0.006543 0.006543 0.006543 0.006543 0.006543 0.006543 0.006543 0.006543 0.006543 0.006543 0.006543 0.006543 0.006543 0.006543 0.006543 0.006543 
0.002407 0.002407 0.002407 0.002407 0.002407 0.002407 0.002407 0.002407 0.002407 0.002407 0.002407 0.002407 0.002407 0.002407 0.002407 0.002407 0.002407 0.002407 0.002407 0.002407 0.002407 
0.0007686 0.0007686 0.0007686 0.0007686 0.0007686 0.0007686 0.0007686 0.0007686 0.0007686 0.0007686 0.0007686 0.0007686 0.0007686 0.0007686 0.0007686 0.0007686 0.0007686 0.0007686 0.0007686 0.0007686 0.0007686 
0.0002114 0.0002114 0.0002114 0.0002114 0.0002114 0.0002114 0.0002114 0.0002114 0.0002114 0.0002114 0.0002114 0.0002114 0.0002114 0.0002114 0.0002114 0.0002114 0.0002114 0.0002114 0.0002114 0.0002114 0.0002114 
4.971e-05 4.971e-05 4.971e-05 4.971e-05 4.971e-05 4.971e-05 4.971e-05 4.971e-05 4.971e-05 4.971e-05 4.971e-05 4.971e-05 4.971e-05 4.971e-05 4.971e-05 4.971e-05 4.971e-05 4.971e-05 4.971e-05 4.971e-05 4.971e-05 
9.905e-06 9.905e-06 9.905e-06 9.905e-06 9.905e-06 9.905e-06 9.905e-06 9.905e-06 9.905e-06 9.905e-06 9.905e-06 9.905e-06 9.905e-06 9.905e-06 9.905e-06 9.905e-06 9.905e-06 9.905e-06 9.905e-06 9.905e-06 9.905e-06 
1.659e-06 1.659e-06 1.659e-06 1.659e-06 1.659e-06 1.659e-06 1.659e-06 1.659e-06 1.659e-06 1.659e-06 1.659e-06 1.659e-06 1.659e-06 1.659e-06 1.659e-06 1.659e-06 1.659e-06 1.659e-06 1.659e-06 1.659e-06 1.659e-06 
2.315e-07 2.315e-07 2.315e-07 2.315e-07 2.315e-07 2.315e-07 2.315e-07 2.315e-07 2.315e-07 2.315e-07 2.315e-07 2.315e-07 2.315e-07 2.315e-07 2.315e-07 2.315e-07 2.315e-07 2.315e-07 2.315e-07 2.315e-07 2.315e-07 
2.67e-08 2.67e-08 2.67e-08 2.67e-08 2.67e-08 2.67e-08 2.67e-08 2.67e-08 2.67e-08 2.67e-08 2.67e-08 2.67e-08 2.67e-08 2.67e-08 2.67e-08 2.67e-08 2.67e-08 2.67e-08 2.67e-08 2.67e-08 2.67e-08 
2.535e-09 2.535e-09 2.535e-09 2.535e-09 2.535e-09 2.535e-09 2.535e-09 2.535e-09 2.535e-09 2.535e-09 2.535e-09 2.535e-09 2.535e-09 2.535e-09 2.535e-09 2.535e-09 2.535e-09 2.535e-09 2.535e-09 2.535e-09 2.535e-09 
2.762e-10 2.762e-10 2.762e-10 2.762e-10 2.762e-10 2.762e-10 2.762e-10 2.762e-10 2.762e-10 2.762e-10 2.762e-10 2.762e-10 2.762e-10 2.762e-10 2.762e-10 2.762e-10 2.762e-10 2.762e-10 2.762e-10 2.762e-10 2.762e-10 
5.334e-10 5.334e-10 5.334e-10 5.334e-10 5.334e-10 5.334e-10 5.334e-10 5.334e-10 5.334e-10 5.334e-10 5.334e-10 5.334e-10 5.334e-10 5.334e-10 5.334e-10 5.334e-10 5.334e-10 5.334e-10 5.334e-10 5.334e-10 5.334e-10 
3.036e-09 3.036e-09 3.036e-09 3.036e-09 3.036e-09 3.036e-09 3.036e-09 3.036e-09 3.036e-09 3.036e-09 3.036e-09 3.036e-09 3.036e-09 3.036e-09 3.036e-09 3.036e-09 3.036e-09 3.036e-09 3.036e-09 3.036e-09 3.036e-09 
1.624e-08 1.624e-08 1.624e-08 1.624e-08 1.624e-08 1.624e-08 1.624e-08 1.624e-08 1.624e-08 1.624e-08 1.624e-08 1.624e-08 1.624e-08 1.624e-08 1.624e-08 1.624e-08 1.624e-08 1.624e-08 1.624e-08 1.624e-08 1.624e-08 
8.003e-08 8.003e-08 8.003e-08 8.003e-08 8.003e-08 8.003e-08 8.003e-08 8.003e-08 8.003e-08 8.003e-08 8.003e-08 8.003e-08 8.003e-08 8.003e-08 8.003e-08 8.003e-08 8.003e-08 8.003e-08 8.003e-08 8.003e-08 8.003e-08 
3.634e-07 3.634e-07 3.634e-07 3.634e-07 3.634e-07 3.634e-07 3.634e-07 3.634e-07 3.634e-07 3.634e-07 3.634e-07 3.634e-07 3.634e-07 3.634e-07 3.634e-07 3.634e-07 3.634e-07 3.634e-07 3.634e-07 3.634e-07 3.634e-07 
1.522e-06 1.522e-06 1.522e-06 1.522e-06 1.522e-06 1.522e-06 1.522e-06 1.522e-06 1.522e-06 1.522e-06 1.522e-06 1.522e-06 1.522e-06 1.522e-06 1.522e-06 1.522e-06 1.522e-06 1.522e-06 1.522e-06 1.522e-06 1.522e-06 
5.885e-06 5.885e-06 5.885e-06 5.885e-06 5.885e-06 5.885e-06 5.885e-06 5.885e-06 5.885e-06 5.885e-06 5.885e-06 5.885e-06 5.885e-06 5.885e-06 5.885e-06 5.885e-06 5.885e-06 5.885e-06 5.885e-06 5.885e-06 5.885e-06 
2.102e-05 2.102e-05 2.102e-05 2.102e-05 2.102e-05 2.102e-05 2.102e-05 2.102e-05 2.102e-05 2.102e-05 2.102e-05 2.102e-05 2.102e-05 2.102e-05 2.102e-05 2.102e-05 2.102e-05 2.102e-05 2.102e-05 2.102e-05 2.102e-05 
6.933e-05 6.933e-05 6.933e-05 6.933e-05 6.933e-05 6.933e-05 6.933e-05 6.933e-05 6.933e-05 6.933e-05 6.933e-05 6.933e-05 6.933e-05 6.933e-05 6.933e-05 6.933e-05 6.933e-05 6.933e-05 6.933e-05 6.933e-05 6.933e-05 
0.0002114 0.0002114 0.0002114 0.0002114 0.0002114 0.0002114 0.0002114 0.0002114 0.0002114 0.0002114 0.0002114 0.0002114 0.0002114 0.0002114 0.0002114 0.0002114 0.0002114 0.0002114 0.0002114 0.0002114 0.0002114 
</DataArray>
<DataArray Name="E" NumberOfComponents="1" format="ascii" type="Float64">
0.8932 0.8932 0.8932 0.8932 0.8932 0.8932 0.8932 0.8932 0.8932 0.8932 0.8932 0.8932 0.8932 0.8932 0.8932 0.8932 0.8932 0.8932 0.8932 0.8932 0.8932 
0.8932 0.8932 0.8932 0.8932 0.8932 0.8932 0.8932 0.8932 0.8932 0.8932 0.8932 0.8932 0.8932 0.8932 0.8932 0.8932 0.8932 0.8932 0.8932 0.8932 0.8932 
0.8932 0.8932 0.8932 0.8932 0.8932 0.8932 0.8932 0.8932 0.8932 0.8932 0.8932 0.8932 0.8932 0.8932 0.8932 0.8932 0.8932 0.8932 0.8932 0.8932 0.8932 
0.8932 0.8932 0.8932 0.8932 0.8932 0.8932 0.8932 0.8932 0.8932 0.8932 0.8932 0.8932 0.8932 0.8932 0.8932 0.8932 0.8932 0.8932 0.8932 0.8932 0.8932 
0.8932 0.8932 0.8932 0.8932 0.8932 0.8932 0.8932 0.8932 0.8932 0.8932 0.8932 0.8932 0.8932 0.8932 0.8932 0.8932 0.8932 0.8932 0.8932 0.8932 0.8932 
0.8932 0.8932 0.8932 0.8932 0.8932 0.8932 0.8932 0.8932 0.8932 0.8932 0.8932 0.8932 0.8932 0.8932 0.8932 0.8932 0.8932 0.8932 0.8932 0.8932 0.8932 
0.8932 0.8932 0.8932 0.8932 0.8932 0.8932 0.8932 0.8932 0.8932 0.8932 0.8932 0.8932 0.8932 0.8932 0.8932 0.8932 0.8932 0.8932 0.8932 0.8932 0.8932 
0.8932 0.8932 0.8932 0.8932 0.8932 0.8932 0.8932 0.8932 0.8932 0.8932 0.8932 0.8932 0.8932 0.8932 0.8932 0.8932 0.8932 0.8932 0.8932 0.8932 0.8932 
0.8932 0.8932 0.8932 0.8932 0.8932 0.8932 0.8932 0.8932 0.8932 0.8932 0.8932 0.8932 0.8932 0.8932 0.8932 0.8932 0.8932 0.8932 0.8932 0.8932 0.8932 
0.8932 0.8932 0.8932 0.8932 0.8932 0.8932 0.8932 0.8932 0.8932 0.8932 0.8932 0.8932 0.8932 0.8932 0.8932 0.8932 0.8932 0.8932 0.8932 0.8932 0.8932 
0.8932 0.8932 0.8932 0.8932 0.8932 0.8932 0.8932 0.8932 0.8932 0.8932 0.8932 0.8932 0.8932 0.8932 0.8932 0.8932 0.8932 0.8932 0.8932 0.8932 0.8932 
0.8932 0.8932 0.8932 0.8932 0.8932 0.8932 0.8932 0.8932 0.8932 0.8932 0.8932 0.8932 0.8932 0.8932 0.8932 0.8932 0.8932 0.8932 0.8932 0.8932 0.8932 
0.8932 0.8932 0.8932 0.8932 0.8932 0.8932 0.8932 0.8932 0.8932 0.8932 0.8932 0.8932 0.8932 0.8932 0.8932 0.8932 0.8932 0.8932 0.8932 0.8932 0.8932 
0.8932 0.8932 0.8932 0.8932 0.8932 0.8932 0.8932 0.8932 0.8932 0.8932 0.8932 0.8932 0.8932 0.8932 0.8932 0.8932 0.8932 0.8932 0.8932 0.8932 0.8932 
0.8932 0.8932 0.8932 0.8932 0.8932 0.8932 0.8932 0.8932 0.8932 0.8932 0.8932 0.8932 0.8932 0.8932 0.8932 0.8932 0.8932 0.8932 0.8932 0.8932 0.8932 
0.8932 0.8932 0.8932 0.8932 0.8932 0.8932 0.8932 0.8932 0.8932 0.8932 0.8932 0.8932 0.8932 0.8932 0.8932 0.8932 0.8932 0.8932 0.8932 0.8932 0.8932 
0.8932 0.8932 0.8932 0.8932 0.8932 0.8932 0.8932 0.8932 0.8932 0.8932 0.8932 0.8932 0.8932 0.8932 0.8932 0.8932 0.8932 0.8932 0.8932 0.8932 0.8932 
0.8932 0.8932 0.8932 0.8932 0.8932 0.8932 0.8932 0.8932 0.8932 0.8932 0.8932 0.8932 0.8932 0.8932 0.8932 0.8932 0.8932 0.8932 0.8932 0.8932 0.8932 
0.8932 0.8932 0.8932 0.8932 0.8932 0.8932 0.8932 0.8932 0.8932 0.8932 0.8932 0.8932 0.8932 0.8932 0.8932 0.8932 0.8932 0.8932 0.8932 0.8932 0.8932 
0.8932 0.8932 0.8932 0.8932 0.8932 0.8932 0.8932 0.8932 0.8932 0.8932 0.8932 0.8932 0.8932 0.8932 0.8932 0.8932 0.8932 0.8932 0.8932 0.8932 0.8932 
0.8932 0.8932 0.8932 0.8932 0.8932 0.8932 0.8932 0.8932 0.8932 0.8932 0.8932 0.8932 0.8932 0.8932 0.8932 0.8932 0.8932 0.8932 0.8932 0.8932 0.8932 
0.8932 0.8932 0.8932 0.8932 0.8932 0.8932 0.8932 0.8932 0.8932 0.8932 0.8932 0.8932 0.8932 0.8932 0.8932 0.8932 0.8932 0.8932 0.8932 0.8932 0.8932 
0.8932 0.8932 0.8932 0.8932 0.8932 0.8932 0.8932 0.8932 0.8932 0.8932 0.8932 0.8932 0.8932 0.8932 0.8932 0.8932 0.8932 0.8932 0.8932 0.8932 0.8932 
0.8932 0.8932 0.8932 0.8932 0.8932 0.8932 0.8932 0.8932 0.8932 0.8932 0.8932 0.8932 0.8932 0.8932 0.8932 0.8932 0.8932 0.8932 0.8932 0.8932 0.8932 
0.8932 0.8932 0.8932 0.8932 0.8932 0.8932 0.8932 0.8932 0.8932 0.8932 0.8932 0.8932 0.8932 0.8932 0.8932 0.8932 0.8932 0.8932 0.8932 0.8932 0.8932 
0.8932 0.8932 0.8932 0.8932 0.8932 0.8932 0.8932 0.8932 0.8932 0.8932 0.8932 0.8932 0.8932 0.8932 0.8932 0.8932 0.8932 0.8932 0.8932 0.8932 0.8932 
0.8932 0.8932 0.8932 0.8932 0.8932 0.8932 0.8932 0.8932 0.8932 0.8932 0.8932 0.8932 0.8932 0.8932 0.8932 0.8932 0.8932 0.8932 0.8932 0.8932 0.8932 
0.8932 0.8932 0.8932 0.8932 0.8932 0.8932 0.8932 0.8932 0.8932 0.8932 0.8932 0.8932 0.8932 0.8932 0.8932 0.8932 0.8932 0.8932 0.8932 0.8932 0.8932 
0.8932 0.8932 0.8932 0.8932 0.8932 0.8932 0.8932 0.8932 0.8932 0.8932 0.8932 0.8932 0.8932 0.8932 0.8932 0.8932 0.8932 0.8932 0.8932 0.8932 0.8932 
0.8932 0.8932 0.8932 0.8932 0.8932 0.8932 0.8932 0.8932 0.8932 0.8932 0.8932 0.8932 0.8932 0.8932 0.8932 0.8932 0.8932 0.8932 0.8932 0.8932 0.8932 
0.8932 0.8932 0.8932 0.8932 0.8932 0.8932 0.8932 0.8932 0.8932 0.8932 0.8932 0.8932 0.8932 0.8932 0.8932 0.8932 0.8932 0.8932 0.8932 0.8932 0.8932 
0.8932 0.8932 0.8932 0.8932 0.8932 0.8932 0.8932 0.8932 0.8932 0.8932 0.8932 0.8932 0.8932 0.8932 0.8932 0.8932 0.8932 0.8932 0.8932 0.8932 0.8932 
0.8932 0.8932 0.8932 0.8932 0.8932 0.8932 0.8932 0.8932 0.8932 0.8932 0.8932 0.8932 0.8932 0.8932 0.8932 0.8932 0.8932 0.8932 0.8932 0.8932 0.8932 
0.8932 0.8932 0.8932 0.8932 0.8932 0.8932 0.8932 0.8932 0.8932 0.8932 0.8932 0.8932 0.8932 0.8932 0.8932 0.8932 0.8932 0.8932 0.8932 0.8932 0.8932 
0.8932 0.8932 0.8932 0.8932 0.8932 0.8932 0.8932 0.8932 0.8932 0.8932 0.8932 0.8932 0.8932 0.8932 0.8932 0.8932 0.8932 0.8932 0.8932 0.8932 0.8932 
0.8932 0.8932 0.8932 0.8932 0.8932 0.8932 0.8932 0.8932 0.8932 0.8932 0.8932 0.8932 0.8932 0.8932 0.8932 0.8932 0.8932 0.8932 0.8932 0.8932 0.8932 
0.8932 0.8932 0.8932 0.8932 0.8932 0.8932 0.8932 0.8932 0.8932 0.8932 0.8932 0.8932 0.8932 0.8932 0.8932 0.8932 0.8932 0.8932 0.8932 0.8932 0.8932 
0.8932 0.8932 0.8932 0.8932 0.8932 0.8932 0.8932 0.8932 0.8932 0.8932 0.8932 0.8932 0.8932 0.8932 0.8932 0.8932 0.8932 0.8932 0.8932 0.8932 0.8932 
0.8932 0.8932 0.8932 0.8932 0.8932 0.8932 0.8932 0.8932 0.8932 0.8932 0.8932 0.8932 0.8932 0.8932 0.8932 0.8932 0.8932 0.8932 0.8932 0.8932 0.8932 
0.8932 0.8932 0.8932 0.8932 0.8932 0.8932 0.8932 0.8932 0.8932 0.8932 0.8932 0.8932 0.8932 0.8932 0.8932 0.8932 0.8932 0.8932 0.8932 0.8932 0.8932 
0.8932 0.8932 0.8932 0.8932 0.8932 0.8932 0.8932 0.8932 0.8932 0.8932 0.8932 0.8932 0.8932 0.8932 0.8932 0.8932 0.8932 0.8932 0.8932 0.8932 0.8932 
</DataArray>
<DataArray Name="ne" NumberOfComponents="1" format="ascii" type="Float64">
0.9999 0.9999 0.9999 0.9999 0.9999 0.9999 0.9999 0.9999 0.9999 0.9999 0.9999 0.9999 0.9999 0.9999 0.9999 0.9999 0.9999 0.9999 0.9999 0.9999 0.9999 
0.9999 0.9999 0.9999 0.9999 0.9999 0.9999 0.9999 0.9999 0.9999 0.9999 0.9999 0.9999 0.9999 0.9999 0.9999 0.9999 0.9999 0.9999 0.9999 0.9999 0.9999 
0.9999 0.9999 0.9999 0.9999 0.9999 0.9999 0.9999 0.9999 0.9999 0.9999 0.9999 0.9999 0.9999 0.9999 0.9999 0.9999 0.9999 0.9999 0.9999 0.9999 0.9999 
0.9999 0.9999 0.9999 0.9999 0.9999 0.9999 0.9999 0.9999 0.9999 0.9999 0.9999 0.9999 0.9999 0.9999 0.9999 0.9999 0.9999 0.9999 0.9999 0.9999 0.9999 
0.9999 0.9999 0.9999 0.9999 0.9999 0.9999 0.9999 0.9999 0.9999 0.9999 0.9999 0.9999 0.9999 0.9999 0.9999 0.9999 0.9999 0.9999 0.9999 0.9999 0.9999 
0.9999 0.9999 0.9999 0.9999 0.9999 0.9999 0.9999 0.9999 0.9999 0.9999 0.9999 0.9999 0.9999 0.9999 0.9999 0.9999 0.9999 0.9999 0.9999 0.9999 0.9999 
0.9999 0.9999 0.9999 0.9999 0.9999 0.9999 0.9999 0.9999 0.9999 0.9999 0.9999 0.9999 0.9999 0.9999 0.9999 0.9999 0.9999 0.9999 0.9999 0.9999 0.9999 
0.9999 0.9999 0.9999 0.9999 0.9999 0.9999 0.9999 0.9999 0.9999 0.9999 0.9999 0.9999 0.9999 0.9999 0.9999 0.9999 0.9999 0.9999 0.9999 0.9999 0.9999 
0.9999 0.9999 0.9999 0.9999 0.9999 0.9999 0.9999 0.9999 0.9999 0.9999 0.9999 0.9999 0.9999 0.9999 0.9999 0.9999 0.9999 0.9999 0.9999 0.9999 0.9999 
0.9999 0.9999 0.9999 0.9999 0.9999 0.9999 0.9999 0.9999 0.9999 0.9999 0.9999 0.9999 0.9999 0.9999 0.9999 0.9999 0.9999 0.9999 0.9999 0.9999 0.9999 
0.9999 0.9999 0.9999 0.9999 0.9999 0.9999 0.9999 0.9999 0.9999 0.9999 0.9999 0.9999 0.9999 0.9999 0.9999 0.9999 0.9999 0.9999 0.9999 0.9999 0.9999 
0.9999 0.9999 0.9999 0.9999 0.9999 0.9999 0.9999 0.9999 0.9999 0.9999 0.9999 0.9999 0.9999 0.9999 0.9999 0.9999 0.9999 0.9999 0.9999 0.9999 0.9999 
0.9999 0.9999 0.9999 0.9999 0.9999 0.9999 0.9999 0.9999 0.9999 0.9999 0.9999 0.9999 0.9999 0.9999 0.9999 0.9999 0.9999 0.9999 0.9999 0.9999 0.9999 
0.9999 0.9999 0.9999 0.9999 0.9999 0.9999 0.9999 0.9999 0.9999 0.9999 0.9999 0.9999 0.9999 0.9999 0.9999 0.9999 0.9999 0.9999 0.9999 0.9999 0.9999 
0.9999 0.9999 0.9999 0.9999 0.9999 0.9999 0.9999 0.9999 0.9999 0.9999 0.9999 0.9999 0.9999 0.9999 0.9999 0.9999 0.9999 0.9999 0.9999 0.9999 0.9999 
0.9999 0.9999 0.9999 0.9999 0.9999 0.9999 0.9999 0.9999 0.9999 0.9999 0.9999 0.9999 0.9999 0.9999 0.9999 0.9999 0.9999 0.9999 0.9999 0.9999 0.9999 
0.9999 0.9999 0.9999 0.9999 0.9999 0.9999 0.9999 0.9999 0.9999 0.9999 0.9999 0.9999 0.9999 0.9999 0.9999 0.9999 0.9999 0.9999 0.9999 0.9999 0.9999 
0.9999 0.9999 0.9999 0.9999 0.9999 0.9999 0.9999 0.9999 0.9999 0.9999 0.9999 0.9999 0.9999 0.9999 0.9999 0.9999 0.9999 0.9999 0.9999 0.9999 0.9999 
0.9999 0.9999 0.9999 0.9999 0.9999 0.9999 0.9999 0.9999 0.9999 0.9999 0.9999 0.9999 0.9999 0.9999 0.9999 0.9999 0.9999 0.9999 0.9999 0.9999 0.9999 
0.9999 0.9999 0.9999 0.9999 0.9999 0.9999 0.9999 0.9999 0.9999 0.9999 0.9999 0.9999 0.9999 0.9999 0.9999 0.9999 0.9999 0.9999 0.9999 0.9999 0.9999 
0.9999 0.9999 0.9999 0.9999 0.9999 0.9999 0.9999 0.9999 0.9999 0.9999 0.9999 0.9999 0.9999 0.9999 0.9999 0.9999 0.9999 0.9999 0.9999 0.9999 0.9999 
0.9999 0.9999 0.9999 0.9999 0.9999 0.9999 0.9999 0.9999 0.9999 0.9999 0.9999 0.9999 0.9999 0.9999 0.9999 0.9999 0.9999 0.9999 0.9999 0.9999 0.9999 
0.9999 0.9999 0.9999 0.9999 0.9999 0.9999 0.9999 0.9999 0.9999 0.9999 0.9999 0.9999 0.9999 0.9999 0.9999 0.9999 0.9999 0.9999 0.9999 0.9999 0.9999 
0.9999 0.9999 0.9999 0.9999 0.9999 0.9999 0.9999 0.9999 0.9999 0.9999 0.9999 0.9999 0.9999 0.9999 0.9999 0.9999 0.9999 0.9999 0.9999 0.9999 0.9999 
0.9999 0.9999 0.9999 0.9999 0.9999 0.9999 0.9999 0.9999 0.9999 0.9999 0.9999 0.9999 0.9999 0.9999 0.9999 0.9999 0.9999 0.9999 0.9999 0.9999 0.9999 
0.9999 0.9999 0.9999 0.9999 0.9999 0.9999 0.9999 0.9999 0.9999 0.9999 0.9999 0.9999 0.9999 0.9999 0.9999 0.9999 0.9999 0.9999 0.9999 0.9999 0.9999 
0.9999 0.9999 0.9999 0.9999 0.9999 0.9999 0.9999 0.9999 0.9999 0.9999 0.9999 0.9999 0.9999 0.9999 0.9999 0.9999 0.9999 0.9999 0.9999 0.9999 0.9999 
0.9999 0.9999 0.9999 0.9999 0.9999 0.9999 0.9999 0.9999 0.9999 0.9999 0.9999 0.9999 0.9999 0.9999 0.9999 0.9999 0.9999 0.9999 0.9999 0.9999 0.9999 
0.9999 0.9999 0.9999 0.9999 0.9999 0.9999 0.9999 0.9999 0.9999 0.9999 0.9999 0.9999 0.9999 0.9999 0.9999 0.9999 0.9999 0.9999 0.9999 0.9999 0.9999 
0.9999 0.9999 0.9999 0.9999 0.9999 0.9999 0.9999 0.9999 0.9999 0.9999 0.9999 0.9999 0.9999 0.9999 0.9999 0.9999 0.9999 0.9999 0.9999 0.9999 0.9999 
0.9999 0.9999 0.9999 0.9999 0.9999 0.9999 0.9999 0.9999 0.9999 0.9999 0.9999 0.9999 0.9999 0.9999 0.9999 0.9999 0.9999 0.9999 0.9999 0.9999 0.9999 
0.9999 0.9999 0.9999 0.9999 0.9999 0.9999 0.9999 0.9999 0.9999 0.9999 0.9999 0.9999 0.9999 0.9999 0.9999 0.9999 0.9999 0.9999 0.9999 0.9999 0.9999 
0.9999 0.9999 0.9999 0.9999 0.9999 0.9999 0.9999 0.9999 0.9999 0.9999 0.9999 0.9999 0.9999 0.9999 0.9999 0.9999 0.9999 0.9999 0.9999 0.9999 0.9999 
0.9999 0.9999 0.9999 0.9999 0.9999 0.9999 0.9999 0.9999 0.9999 0.9999 0.9999 0.9999 0.9999 0.9999 0.9999 0.9999 0.9999 0.9999 0.9999 0.9999 0.9999 
0.9999 0.9999 0.9999 0.9999 0.9999 0.9999 0.9999 0.9999 0.9999 0.9999 0.9999 0.9999 0.9999 0.9999 0.9999 0.9999 0.9999 0.9999 0.9999 0.9999 0.9999 
0.9999 0.9999 0.9999 0.9999 0.9999 0.9999 0.9999 0.9999 0.9999 0.9999 0.9999 0.9999 0.9999 0.9999 0.9999 0.9999 0.9999 0.9999 0.9999 0.9999 0.9999 
0.9999 0.9999 0.9999 0.9999 0.9999 0.9999 0.9999 0.9999 0.9999 0.9999 0.9999 0.9999 0.9999 0.9999 0.9999 0.9999 0.9999 0.9999 0.9999 0.9999 0.9999 
0.9999 0.9999 0.9999 0.9999 0.9999 0.9999 0.9999 0.9999 0.9999 0.9999 0.9999 0.9999 0.9999 0.9999 0.9999 0.9999 0.9999 0.9999 0.9999 0.9999 0.9999 
0.9999 0.9999 0.9999 0.9999 0.9999 0.9999 0.9999 0.9999 0.9999 0.9999 0.9999 0.9999 0.9999 0.9999 0.9999 0.9999 0.9999 0.9999 0.9999 0.9999 0.9999 
0.9999 0.9999 0.9999 0.9999 0.9999 0.9999 0.9999 0.9999 0.9999 0.9999 0.9999 0.9999 0.9999 0.9999 0.9999 0.9999 0.9999 0.9999 0.9999 0.9999 0.9999 
0.9999 0.9999 0.9999 0.9999 0.9999 0.9999 0.9999 0.9999 0.9999 0.9999 0.9999 0.9999 0.9999 0.9999 0.9999 0.9999 0.9999 0.9999 0.9999 0.9999 0.9999 
</DataArray>
</PointData>
</Piece>
</ImageData>
</VTKFile>
