<VTKFile type="ImageData">
<ImageData Origin="0 -10 0" Spacing="0.5 0.5 1" WholeExtent="0 20 0 40 0 0">
<Piece Extent="0 20 0 40 0 0">
<PointData>
<DataArray Name="f" NumberOfComponents="1" format="ascii" type="Float64">
3.883e-06 3.883e-06 3.883e-06 3.883e-06 3.883e-06 3.883e-06 3.883e-06 3.883e-06 3.884e-06 3.884e-06 3.884e-06 3.884e-06 3.884e-06 3.884e-06 3.884e-06 3.884e-06 3.884e-06 3.883e-06 3.883e-06 3.883e-06 3.883e-06 
3.498e-06 3.498e-06 3.498e-06 3.498e-06 3.498e-06 3.498e-06 3.498e-06 3.498e-06 3.498e-06 3.498e-06 3.498e-06 3.498e-06 3.498e-06 3.498e-06 3.498e-06 3.498e-06 3.498e-06 3.498e-06 3.498e-06 3.498e-06 3.498e-06 
7.802e-06 7.802e-06 7.802e-06 7.802e-06 7.802e-06 7.802e-06 7.802e-06 7.802e-06 7.802e-06 7.802e-06 7.802e-06 7.802e-06 7.802e-06 7.802e-06 7.802e-06 7.802e-06 7.802e-06 7.802e-06 7.802e-06 7.802e-06 7.802e-06 
2.099e-05 2.099e-05 2.099e-05 2.099e-05 2.099e-05 2.099e-05 2.099e-05 2.099e-05 2.099e-05 2.099e-05 2.099e-05 2.099e-05 2.099e-05 2.099e-05 2.099e-05 2.099e-05 2.099e-05 2.099e-05 2.099e-05 2.099e-05 2.099e-05 
5.497e-05 5.497e-05 5.497e-05 5.497e-05 5.497e-05 5.497e-05 5.497e-05 5.497e-05 5.497e-05 5.497e-05 5.497e-05 5.497e-05 5.497e-05 5.497e-05 5.497e-05 5.497e-05 5.497e-05 5.497e-05 5.497e-05 5.497e-05 5.497e-05 
0.0001366 0.0001366 0.0001366 0.0001366 0.0001366 0.0001366 0.0001366 0.0001366 0.0001366 0.0001366 0.0001366 0.0001366 0.0001366 0.0001366 0.0001366 0.0001366 0.0001366 0.0001366 0.0001366 0.0001366 0.0001366 
0.0003216 0.0003216 0.0003216 0.0003216 0.0003216 0.0003216 0.0003216 0.0003216 0.0003216 0.0003216 0.0003216 0.0003216 0.0003216 0.0003216 0.0003216 0.0003216 0.0003216 0.0003216 0.0003216 0.0003216 0.0003216 
0.000717 0.000717 0.000717 0.000717 0.000717 0.000717 0.000717 0.000717 0.000717 0.000717 0.000717 0.000717 0.000717 0.000717 0.000717 0.000717 0.000717 0.000717 0.000717 0.000717 0.000717 
0.001514 0.001514 0.001514 0.001514 0.001514 0.001514 0.001514 0.001514 0.001514 0.001514 0.001514 0.001514 0.001514 0.001514 0.001514 0.001514 0.001514 0.001514 0.001514 0.001514 0.001514 
0.003029 0.003029 0.003029 0.003029 0.003029 0.003029 0.003029 0.003029 0.003029 0.003029 0.003029 0.003029 0.003029 0.003029 0.003029 0.003029 0.003029 0.003029 0.003029 0.003029 0.003029 
0.005741 0.005741 0.005741 0.005741 0.005741 0.005741 0.005741 0.005741 0.005741 0.005741 0.005741 0.005741 0.005741 0.005741 0.005741 0.005741 0.005741 0.005741 0.005741 0.005741 0.005741 
0.01031 0.01031 0.01031 0.01031 0.01031 0.01031 0.01031 0.01031 0.01031 0.01031 0.01031 0.01031 0.01031 0.01031 0.01031 0.01031 0.01031 0.01031 0.01031 0.01031 0.01031 
0.01755 0.01755 0.01755 0.01755 0.01755 0.01755 0.01755 0.01755 0.01755 0.01755 0.01755 0.01755 0.01755 0.01755 0.01755 0.01755 0.01755 0.01755 0.01755 0.01755 0.01755 
0.0283 0.0283 0.0283 0.0283 0.0283 0.0283 0.0283 0.0283 0.0283 0.0283 0.0283 0.0283 0.0283 0.0283 0.0283 0.0283 0.0283 0.0283 0.0283 0.0283 0.0283 
0.04325 0.04325 0.04325 0.04325 0.04325 0.04325 0.04325 0.04325 0.04325 0.04325 0.04325 0.04325 0.04325 0.04325 0.04325 0.04325 0.04325 0.04325 0.04325 0.04325 0.04325 
0.06263 0.06263 0.06263 0.06263 0.06263 0.06263 0.06263 0.06263 0.06263 0.06263 0.06263 0.06263 0.06263 0.06263 0.06263 0.06263 0.06263 0.06263 0.06263 0.06263 0.06263 
0.08596 0.08596 0.08596 0.08596 0.08596 0.08596 0.08596 0.08596 0.08596 0.08596 0.08596 0.08596 0.08596 0.08596 0.08596 0.08596 0.08596 0.08596 0.08596 0.08596 0.08596 
0.1118 0.1118 0.1118 0.1118 0.1118 0.1118 0.1118 0.1118 0.1118 0.1118 0.1118 0.1118 0.1118 0.1118 0.1118 0.1118 0.1118 0.1118 0.1118 0.1118 0.1118 
0.1377 0.1377 0.1377 0.1377 0.1377 0.1377 0.1377 0.1377 0.1377 0.1377 0.1377 0.1377 0.1377 0.1377 0.1377 0.1377 0.1377 0.1377 0.1377 0.1377 0.1377 
0.1608 0.1608 0.1608 0.1608 0.1608 0.1608 0.1608 0.1608 0.1608 0.1608 0.1608 0.1608 0.1608 0.1608 0.1608 0.1608 0.1608 0.1608 0.1608 0.1608 0.1608 
0.1777 0.1777 0.1777 0.1777 0.1777 0.1777 0.1777 0.1777 0.1777 0.1777 0.1777 0.1777 0.1777 0.1777 0.1777 0.1777 0.1777 0.1777 0.1777 0.1777 0.1777 
0.1861 0.1861 0.1861 0.1861 0.1861 0.1861 0.1861 0.1861 0.1861 0.1861 0.1861 0.1861 0.1861 0.1861 0.1861 0.1861 0.1861 0.1861 0.1861 0.1861 0.1861 
0.1845 0.1845 0.1845 0.1845 0.1845 0.1845 0.1845 0.1845 0.1845 0.1845 0.1845 0.1845 0.1845 0.1845 0.1845 0.1845 0.1845 0.1845 0.1845 0.1845 0.1845 
0.1732 0.1732 0.1732 0.1732 0.1732 0.1732 0.1732 0.1732 0.1732 0.1732 0.1732 0.1732 0.1732 0.1732 0.1732 0.1732 0.1732 0.1732 0.1732 0.1732 0.1732 
0.1539 0.1539 0.1539 0.1539 0.1539 0.1539 0.1539 0.1539 0.1539 0.1539 0.1539 0.1539 0.1539 0.1539 0.1539 0.1539 0.1539 0.1539 0.1539 0.1539 0.1539 
0.1293 0.1293 0.1293 0.1293 0.1293 0.1293 0.1293 0.1293 0.1293 0.1293 0.1293 0.1293 0.1293 0.1293 0.1293 0.1293 0.1293 0.1293 0.1293 0.1293 0.1293 
0.1028 0.1028 0.1028 0.1028 0.1028 0.1028 0.1028 0.1028 0.1028 0.1028 0.1028 0.1028 0.1028 0.1028 0.1028 0.1028 0.1028 0.1028 0.1028 0.1028 0.1028 
0.07731 0.07731 0.07731 0.07731 0.07731 0.07731 0.07731 0.07731 0.07731 0.07731 0.07731 0.07731 0.07731 0.07731 0.07731 0.07731 0.07731 0.07731 0.07731 0.07731 0.07731 
0.05494 0.05494 0.05494 0.05494 0.05494 0.05494 0.05494 0.05494 0.05494 0.05494 0.05494 0.05494 0.05494 0.05494 0.05494 0.05494 0.05494 0.05494 0.05494 0.05494 0.05494 
0.03689 0.03689 0.03689 0.03689 0.03689 0.03689 0.03689 0.03689 0.03689 0.03689 0.03689 0.03689 0.03689 0.03689 0.03689 0.03689 0.03689 0.03689 0.03689 0.03689 0.03689 
0.0234 0.0234 0.0234 0.0234 0.0234 0.0234 0.0234 0.0234 0.0234 0.0234 0.0234 0.0234 0.0234 0.0234 0.0234 0.0234 0.0234 0.0234 0.0234 0.0234 0.0234 
0.01401 0.01401 0.01401 0.01401 0.01401 0.01401 0.01401 0.01401 0.01401 0.01401 0.01401 0.01401 0.01401 0.01401 0.01401 0.01401 0.01401 0.01401 0.01401 0.01401 0.01401 
0.007915 0.007915 0.007915 0.007915 0.007915 0.007915 0.007915 0.007915 0.007915 0.007915 0.007915 0.007915 0.007915 0.007915 0.007915 0.007915 0.007915 0.007915 0.007915 0.007915 0.007915 
0.004217 0.004217 0.004217 0.004217 0.004217 0.004217 0.004217 0.004217 0.004217 0.004217 0.004217 0.004217 0.004217 0.004217 0.004217 0.004217 0.004217 0.004217 0.004217 0.004217 0.004217 
0.002118 0.002117 0.002117 0.002117 0.002117 0.002117 0.002117 0.002117 0.002117 0.002117 0.002117 0.002117 0.002117 0.002117 0.002117 0.002117 0.002117 0.002118 0.002118 0.002118 0.002118 
0.001002 0.001002 0.001002 0.001002 0.001002 0.001001 0.001001 0.001001 0.001001 0.001001 0.001001 0.001001 0.001001 0.001001 0.001001 0.001001 0.001001 0.001001 0.001002 0.001002 0.001002 
0.0004458 0.0004459 0.0004459 0.0004459 0.0004459 0.0004459 0.0004459 0.0004458 0.0004458 0.0004458 0.0004458 0.0004458 0.0004458 0.0004458 0.0004458 0.0004458 0.0004458 0.0004458 0.0004458 0.0004458 0.0004458 
0.0001867 0.0001867 0.0001867 0.0001867 0.0001867 0.0001867 0.0001867 0.0001867 0.0001867 0.0001867 0.0001867 0.0001867 0.0001867 0.0001867 0.0001867 0.0001867 0.0001867 0.0001867 0.0001867 0.0001867 0.0001867 
7.347e-05 7.348e-05 7.348e-05 7.348e-05 7.348e-05 7.348e-05 7.348e-05 7.348e-05 7.348e-05 7.348e-05 7.348e-05 7.348e-05 7.348e-05 7.348e-05 7.348e-05 7.348e-05 7.348e-05 7.347e-05 7.347e-05 7.347e-05 7.347e-05 
2.721e-05 2.721e-05 2.721e-05 2.721e-05 2.721e-05 2.721e-05 2.721e-05 2.721e-05 2.721e-05 2.721e-05 2.721e-05 2.721e-05 2.721e-05 2.721e-05 2.721e-05 2.721e-05 2.721e-05 2.721e-05 2.721e-05 2.721e-05 2.721e-05 
9.659e-06 9.659e-06 9.659e-06 9.659e-06 9.659e-06 9.659e-06 9.659e-06 9.659e-06 9.659e-06 9.659e-06 9.659e-06 9.66e-06 9.66e-06 9.66e-06 9.66e-06 9.66e-06 9.66e-06 9.66e-06 9.66e-06 9.659e-06 9.659e-06 
</DataArray>
<DataArray Name="E" NumberOfComponents="1" format="ascii" type="Float64">
-1.453 -1.453 -1.453 -1.453 -1.453 -1.453 -1.453 -1.453 -1.453 -1.453 -1.453 -1.453 -1.453 -1.453 -1.453 -1.453 -1.453 -1.453 -1.453 -1.453 -1.453 
-1.453 -1.453 -1.453 -1.453 -1.453 -1.453 -1.453 -1.453 -1.453 -1.453 -1.453 -1.453 -1.453 -1.453 -1.453 -1.453 -1.453 -1.453 -1.453 -1.453 -1.453 
-1.453 -1.453 -1.453 -1.453 -1.453 -1.453 -1.453 -1.453 -1.453 -1.453 -1.453 -1.453 -1.453 -1.453 -1.453 -1.453 -1.453 -1.453 -1.453 -1.453 -1.453 
-1.453 -1.453 -1.453 -1.453 -1.453 -1.453 -1.453 -1.453 -1.453 -1.453 -1.453 -1.453 -1.453 -1.453 -1.453 -1.453 -1.453 -1.453 -1.453 -1.453 -1.453 
-1.453 -1.453 -1.453 -1.453 -1.453 -1.453 -1.453 -1.453 -1.453 -1.453 -1.453 -1.453 -1.453 -1.453 -1.453 -1.453 -1.453 -1.453 -1.453 -1.453 -1.453 
-1.453 -1.453 -1.453 -1.453 -1.453 -1.453 -1.453 -1.453 -1.453 -1.453 -1.453 -1.453 -1.453 -1.453 -1.453 -1.453 -1.453 -1.453 -1.453 -1.453 -1.453 
-1.453 -1.453 -1.453 -1.453 -1.453 -1.453 -1.453 -1.453 -1.453 -1.453 -1.453 -1.453 -1.453 -1.453 -1.453 -1.453 -1.453 -1.453 -1.453 -1.453 -1.453 
-1.453 -1.453 -1.453 -1.453 -1.453 -1.453 -1.453 -1.453 -1.453 -1.453 -1.453 -1.453 -1.453 -1.453 -1.453 -1.453 -1.453 -1.453 -1.453 -1.453 -1.453 
-1.453 -1.453 -1.453 -1.453 -1.453 -1.453 -1.453 -1.453 -1.453 -1.453 -1.453 -1.453 -1.453 -1.453 -1.453 -1.453 -1.453 -1.453 -1.453 -1.453 -1.453 
-1.453 -1.453 -1.453 -1.453 -1.453 -1.453 -1.453 -1.453 -1.453 -1.453 -1.453 -1.453 -1.453 -1.453 -1.453 -1.453 -1.453 -1.453 -1.453 -1.453 -1.453 
-1.453 -1.453 -1.453 -1.453 -1.453 -1.453 -1.453 -1.453 -1.453 -1.453 -1.453 -1.453 -1.453 -1.453 -1.453 -1.453 -1.453 -1.453 -1.453 -1.453 -1.453 
-1.453 -1.453 -1.453 -1.453 -1.453 -1.453 -1.453 -1.453 -1.453 -1.453 -1.453 -1.453 -1.453 -1.453 -1.453 -1.453 -1.453 -1.453 -1.453 -1.453 -1.453 
-1.453 -1.453 -1.453 -1.453 -1.453 -1.453 -1.453 -1.453 -1.453 -1.453 -1.453 -1.453 -1.453 -1.453 -1.453 -1.453 -1.453 -1.453 -1.453 -1.453 -1.453 
-1.453 -1.453 -1.453 -1.453 -1.453 -1.453 -1.453 -1.453 -1.453 -1.453 -1.453 -1.453 -1.453 -1.453 -1.453 -1.453 -1.453 -1.453 -1.453 -1.453 -1.453 
-1.453 -1.453 -1.453 -1.453 -1.453 -1.453 -1.453 -1.453 -1.453 -1.453 -1.453 -1.453 -1.453 -1.453 -1.453 -1.453 -1.453 -1.453 -1.453 -1.453 -1.453 
-1.453 -1.453 -1.453 -1.453 -1.453 -1.453 -1.453 -1.453 -1.453 -1.453 -1.453 -1.453 -1.453 -1.453 -1.453 -1.453 -1.453 -1.453 -1.453 -1.453 -1.453 
-1.453 -1.453 -1.453 -1.453 -1.453 -1.453 -1.453 -1.453 -1.453 -1.453 -1.453 -1.453 -1.453 -1.453 -1.453 -1.453 -1.453 -1.453 -1.453 -1.453 -1.453 
-1.453 -1.453 -1.453 -1.453 -1.453 -1.453 -1.453 -1.453 -1.453 -1.453 -1.453 -1.453 -1.453 -1.453 -1.453 -1.453 -1.453 -1.453 -1.453 -1.453 -1.453 
-1.453 -1.453 -1.453 -1.453 -1.453 -1.453 -1.453 -1.453 -1.453 -1.453 -1.453 -1.453 -1.453 -1.453 -1.453 -1.453 -1.453 -1.453 -1.453 -1.453 -1.453 
-1.453 -1.453 -1.453 -1.453 -1.453 -1.453 -1.453 -1.453 -1.453 -1.453 -1.453 -1.453 -1.453 -1.453 -1.453 -1.453 -1.453 -1.453 -1.453 -1.453 -1.453 
-1.453 -1.453 -1.453 -1.453 -1.453 -1.453 -1.453 -1.453 -1.453 -1.453 -1.453 -1.453 -1.453 -1.453 -1.453 -1.453 -1.453 -1.453 -1.453 -1.453 -1.453 
-1.453 -1.453 -1.453 -1.453 -1.453 -1.453 -1.453 -1.453 -1.453 -1.453 -1.453 -1.453 -1.453 -1.453 -1.453 -1.453 -1.453 -1.453 -1.453 -1.453 -1.453 
-1.453 -1.453 -1.453 -1.453 -1.453 -1.453 -1.453 -1.453 -1.453 -1.453 -1.453 -1.453 -1.453 -1.453 -1.453 -1.453 -1.453 -1.453 -1.453 -1.453 -1.453 
-1.453 -1.453 -1.453 -1.453 -1.453 -1.453 -1.453 -1.453 -1.453 -1.453 -1.453 -1.453 -1.453 -1.453 -1.453 -1.453 -1.453 -1.453 -1.453 -1.453 -1.453 
-1.453 -1.453 -1.453 -1.453 -1.453 -1.453 -1.453 -1.453 -1.453 -1.453 -1.453 -1.453 -1.453 -1.453 -1.453 -1.453 -1.453 -1.453 -1.453 -1.453 -1.453 
-1.453 -1.453 -1.453 -1.453 -1.453 -1.453 -1.453 -1.453 -1.453 -1.453 -1.453 -1.453 -1.453 -1.453 -1.453 -1.453 -1.453 -1.453 -1.453 -1.453 -1.453 
-1.453 -1.453 -1.453 -1.453 -1.453 -1.453 -1.453 -1.453 -1.453 -1.453 -1.453 -1.453 -1.453 -1.453 -1.453 -1.453 -1.453 -1.453 -1.453 -1.453 -1.453 
-1.453 -1.453 -1.453 -1.453 -1.453 -1.453 -1.453 -1.453 -1.453 -1.453 -1.453 -1.453 -1.453 -1.453 -1.453 -1.453 -1.453 -1.453 -1.453 -1.453 -1.453 
-1.453 -1.453 -1.453 -1.453 -1.453 -1.453 -1.453 -1.453 -1.453 -1.453 -1.453 -1.453 -1.453 -1.453 -1.453 -1.453 -1.453 -1.453 -1.453 -1.453 -1.453 
-1.453 -1.453 -1.453 -1.453 -1.453 -1.453 -1.453 -1.453 -1.453 -1.453 -1.453 -1.453 -1.453 -1.453 -1.453 -1.453 -1.453 -1.453 -1.453 -1.453 -1.453 
-1.453 -1.453 -1.453 -1.453 -1.453 -1.453 -1.453 -1.453 -1.453 -1.453 -1.453 -1.453 -1.453 -1.453 -1.453 -1.453 -1.453 -1.453 -1.453 -1.453 -1.453 
-1.453 -1.453 -1.453 -1.453 -1.453 -1.453 -1.453 -1.453 -1.453 -1.453 -1.453 -1.453 -1.453 -1.453 -1.453 -1.453 -1.453 -1.453 -1.453 -1.453 -1.453 
-1.453 -1.453 -1.453 -1.453 -1.453 -1.453 -1.453 -1.453 -1.453 -1.453 -1.453 -1.453 -1.453 -1.453 -1.453 -1.453 -1.453 -1.453 -1.453 -1.453 -1.453 
-1.453 -1.453 -1.453 -1.453 -1.453 -1.453 -1.453 -1.453 -1.453 -1.453 -1.453 -1.453 -1.453 -1.453 -1.453 -1.453 -1.453 -1.453 -1.453 -1.453 -1.453 
-1.453 -1.453 -1.453 -1.453 -1.453 -1.453 -1.453 -1.453 -1.453 -1.453 -1.453 -1.453 -1.453 -1.453 -1.453 -1.453 -1.453 -1.453 -1.453 -1.453 -1.453 
-1.453 -1.453 -1.453 -1.453 -1.453 -1.453 -1.453 -1.453 -1.453 -1.453 -1.453 -1.453 -1.453 -1.453 -1.453 -1.453 -1.453 -1.453 -1.453 -1.453 -1.453 
-1.453 -1.453 -1.453 -1.453 -1.453 -1.453 -1.453 -1.453 -1.453 -1.453 -1.453 -1.453 -1.453 -1.453 -1.453 -1.453 -1.453 -1.453 -1.453 -1.453 -1.453 
-1.453 -1.453 -1.453 -1.453 -1.453 -1.453 -1.453 -1.453 -1.453 -1.453 -1.453 -1.453 -1.453 -1.453 -1.453 -1.453 -1.453 -1.453 -1.453 -1.453 -1.453 
-1.453 -1.453 -1.453 -1.453 -1.453 -1.453 -1.453 -1.453 -1.453 -1.453 -1.453 -1.453 -1.453 -1.453 -1.453 -1.453 -1.453 -1.453 -1.453 -1.453 -1.453 
-1.453 -1.453 -1.453 -1.453 -1.453 -1.453 -1.453 -1.453 -1.453 -1.453 -1.453 -1.453 -1.453 -1.453 -1.453 -1.453 -1.453 -1.453 -1.453 -1.453 -1.453 
-1.453 -1.453 -1.453 -1.453 -1.453 -1.453 -1.453 -1.453 -1.453 -1.453 -1.453 -1.453 -1.453 -1.453 -1.453 -1.453 -1.453 -1.453 -1.453 -1.453 -1.453 
</DataArray>
<DataArray Name="ne" NumberOfComponents="1" format="ascii" type="Float64">
1 1 1 1 1 1 1 1 1 1 1 1 1 1 1 1 1 1 1 1 1 
1 1 1 1 1 1 1 1 1 1 1 1 1 1 1 1 1 1 1 1 1 
1 1 1 1 1 1 1 1 1 1 1 1 1 1 1 1 1 1 1 1 1 
1 1 1 1 1 1 1 1 1 1 1 1 1 1 1 1 1 1 1 1 1 
1 1 1 1 1 1 1 1 1 1 1 1 1 1 1 1 1 1 1 1 1 
1 1 1 1 1 1 1 1 1 1 1 1 1 1 1 1 1 1 1 1 1 
1 1 1 1 1 1 1 1 1 1 1 1 1 1 1 1 1 1 1 1 1 
1 1 1 1 1 1 1 1 1 1 1 1 1 1 1 1 1 1 1 1 1 
1 1 1 1 1 1 1 1 1 1 1 1 1 1 1 1 1 1 1 1 1 
1 1 1 1 1 1 1 1 1 1 1 1 1 1 1 1 1 1 1 1 1 
1 1 1 1 1 1 1 1 1 1 1 1 1 1 1 1 1 1 1 1 1 
1 1 1 1 1 1 1 1 1 1 1 1 1 1 1 1 1 1 1 1 1 
1 1 1 1 1 1 1 1 1 1 1 1 1 1 1 1 1 1 1 1 1 
1 1 1 1 1 1 1 1 1 1 1 1 1 1 1 1 1 1 1 1 1 
1 1 1 1 1 1 1 1 1 1 1 1 1 1 1 1 1 1 1 1 1 
1 1 1 1 1 1 1 1 1 1 1 1 1 1 1 1 1 1 1 1 1 
1 1 1 1 1 1 1 1 1 1 1 1 1 1 1 1 1 1 1 1 1 
1 1 1 1 1 1 1 1 1 1 1 1 1 1 1 1 1 1 1 1 1 
1 1 1 1 1 1 1 1 1 1 1 1 1 1 1 1 1 1 1 1 1 
1 1 1 1 1 1 1 1 1 1 1 1 1 1 1 1 1 1 1 1 1 
1 1 1 1 1 1 1 1 1 1 1 1 1 1 1 1 1 1 1 1 1 
1 1 1 1 1 1 1 1 1 1 1 1 1 1 1 1 1 1 1 1 1 
1 1 1 1 1 1 1 1 1 1 1 1 1 1 1 1 1 1 1 1 1 
1 1 1 1 1 1 1 1 1 1 1 1 1 1 1 1 1 1 1 1 1 
1 1 1 1 1 1 1 1 1 1 1 1 1 1 1 1 1 1 1 1 1 
1 1 1 1 1 1 1 1 1 1 1 1 1 1 1 1 1 1 1 1 1 
1 1 1 1 1 1 1 1 1 1 1 1 1 1 1 1 1 1 1 1 1 
1 1 1 1 1 1 1 1 1 1 1 1 1 1 1 1 1 1 1 1 1 
1 1 1 1 1 1 1 1 1 1 1 1 1 1 1 1 1 1 1 1 1 
1 1 1 1 1 1 1 1 1 1 1 1 1 1 1 1 1 1 1 1 1 
1 1 1 1 1 1 1 1 1 1 1 1 1 1 1 1 1 1 1 1 1 
1 1 1 1 1 1 1 1 1 1 1 1 1 1 1 1 1 1 1 1 1 
1 1 1 1 1 1 1 1 1 1 1 1 1 1 1 1 1 1 1 1 1 
1 1 1 1 1 1 1 1 1 1 1 1 1 1 1 1 1 1 1 1 1 
1 1 1 1 1 1 1 1 1 1 1 1 1 1 1 1 1 1 1 1 1 
1 1 1 1 1 1 1 1 1 1 1 1 1 1 1 1 1 1 1 1 1 
1 1 1 1 1 1 1 1 1 1 1 1 1 1 1 1 1 1 1 1 1 
1 1 1 1 1 1 1 1 1 1 1 1 1 1 1 1 1 1 1 1 1 
1 1 1 1 1 1 1 1 1 1 1 1 1 1 1 1 1 1 1 1 1 
1 1 1 1 1 1 1 1 1 1 1 1 1 1 1 1 1 1 1 1 1 
1 1 1 1 1 1 1 1 1 1 1 1 1 1 1 1 1 1 1 1 1 
</DataArray>
</PointData>
</Piece>
</ImageData>
</VTKFile>
