<VTKFile type="ImageData">
<ImageData Origin="0 -10 0" Spacing="0.5 0.5 1" WholeExtent="0 20 0 40 0 0">
<Piece Extent="0 20 0 40 0 0">
<PointData>
<DataArray Name="f" NumberOfComponents="1" format="ascii" type="Float64">
0.0003241 0.0003241 0.0003241 0.0003241 0.0003241 0.0003241 0.0003241 0.0003241 0.0003241 0.0003241 0.0003241 0.0003241 0.0003241 0.0003241 0.0003241 0.0003241 0.0003241 0.0003241 0.0003241 0.0003241 0.0003241 
0.0008065 0.0008065 0.0008065 0.0008065 0.0008065 0.0008065 0.0008065 0.0008065 0.0008065 0.0008065 0.0008065 0.0008065 0.0008065 0.0008065 0.0008065 0.0008065 0.0008065 0.0008065 0.0008065 0.0008065 0.0008065 
0.001877 0.001877 0.001877 0.001877 0.001877 0.001877 0.001877 0.001877 0.001877 0.001877 0.001877 0.001877 0.001877 0.001877 0.001877 0.001877 0.001877 0.001877 0.001877 0.001877 0.001877 
0.004084 0.004084 0.004084 0.004084 0.004084 0.004084 0.004084 0.004084 0.004084 0.004084 0.004084 0.004084 0.004084 0.004084 0.004084 0.004084 0.004084 0.004084 0.004084 0.004084 0.004084 
0.008309 0.008309 0.008309 0.008309 0.008309 0.008309 0.008309 0.008309 0.008309 0.008309 0.008309 0.008309 0.00831 0.00831 0.00831 0.00831 0.00831 0.00831 0.00831 0.00831 0.008309 
0.0158 0.0158 0.0158 0.0158 0.0158 0.0158 0.0158 0.0158 0.0158 0.0158 0.0158 0.0158 0.0158 0.0158 0.0158 0.0158 0.0158 0.0158 0.0158 0.0158 0.0158 
0.02805 0.02805 0.02805 0.02805 0.02805 0.02805 0.02805 0.02805 0.02805 0.02805 0.02805 0.02805 0.02805 0.02805 0.02805 0.02805 0.02805 0.02805 0.02805 0.02805 0.02805 
0.04649 0.04649 0.04649 0.04649 0.04649 0.04649 0.04649 0.04649 0.04649 0.04649 0.04649 0.04649 0.04649 0.04649 0.04649 0.04649 0.04649 0.04649 0.04649 0.04649 0.04649 
0.07188 0.07188 0.07188 0.07188 0.07188 0.07188 0.07188 0.07188 0.07188 0.07188 0.07188 0.07188 0.07188 0.07188 0.07188 0.07188 0.07188 0.07188 0.07188 0.07188 0.07188 
0.1036 0.1036 0.1036 0.1036 0.1036 0.1036 0.1036 0.1036 0.1036 0.1036 0.1036 0.1036 0.1036 0.1036 0.1036 0.1036 0.1036 0.1036 0.1036 0.1036 0.1036 
0.1391 0.1391 0.1391 0.1391 0.1391 0.1391 0.1391 0.1391 0.1391 0.1391 0.1391 0.1391 0.1391 0.1391 0.1391 0.1391 0.1391 0.1391 0.1391 0.1391 0.1391 
0.1737 0.1737 0.1737 0.1737 0.1737 0.1737 0.1737 0.1737 0.1737 0.1737 0.1737 0.1737 0.1737 0.1737 0.1737 0.1737 0.1737 0.1737 0.1737 0.1737 0.1737 
0.2018 0.2018 0.2018 0.2018 0.2018 0.2018 0.2018 0.2018 0.2018 0.2018 0.2018 0.2018 0.2018 0.2018 0.2018 0.2018 0.2018 0.2018 0.2018 0.2018 0.2018 
0.2176 0.2176 0.2176 0.2176 0.2176 0.2176 0.2176 0.2176 0.2176 0.2176 0.2176 0.2176 0.2176 0.2176 0.2176 0.2176 0.2176 0.2176 0.2176 0.2176 0.2176 
0.2178 0.2178 0.2178 0.2178 0.2178 0.2178 0.2178 0.2178 0.2178 0.2178 0.2178 0.2178 0.2178 0.2178 0.2178 0.2178 0.2178 0.2178 0.2178 0.2178 0.2178 
0.2019 0.2019 0.2019 0.2019 0.2019 0.2019 0.2019 0.2019 0.2019 0.2019 0.2019 0.2019 0.2019 0.2019 0.2019 0.2019 0.2019 0.2019 0.2019 0.2019 0.2019 
0.1732 0.1732 0.1732 0.1732 0.1732 0.1732 0.1732 0.1732 0.1732 0.1732 0.1732 0.1732 0.1732 0.1732 0.1732 0.1732 0.1732 0.1732 0.1732 0.1732 0.1732 
0.1373 0.1373 0.1373 0.1373 0.1373 0.1373 0.1373 0.1373 0.1373 0.1373 0.1373 0.1373 0.1373 0.1373 0.1373 0.1373 0.1373 0.1373 0.1373 0.1373 0.1373 
0.1004 0.1004 0.1004 0.1004 0.1004 0.1004 0.1004 0.1004 0.1004 0.1004 0.1004 0.1004 0.1004 0.1004 0.1004 0.1004 0.1004 0.1004 0.1004 0.1004 0.1004 
0.06763 0.06763 0.06764 0.06764 0.06764 0.06764 0.06764 0.06764 0.06764 0.06764 0.06764 0.06764 0.06764 0.06764 0.06764 0.06764 0.06764 0.06764 0.06764 0.06764 0.06763 
0.04191 0.04191 0.04191 0.04191 0.04191 0.04191 0.04191 0.04191 0.04191 0.04191 0.04191 0.04191 0.04191 0.04191 0.04191 0.04191 0.04191 0.04191 0.04191 0.04191 0.04191 
0.02384 0.02384 0.02384 0.02384 0.02384 0.02384 0.02384 0.02384 0.02384 0.02384 0.02384 0.02384 0.02384 0.02384 0.02385 0.02385 0.02385 0.02385 0.02385 0.02384 0.02384 
0.01243 0.01243 0.01243 0.01243 0.01243 0.01243 0.01243 0.01243 0.01243 0.01243 0.01243 0.01243 0.01243 0.01243 0.01243 0.01243 0.01243 0.01243 0.01243 0.01243 0.01243 
0.00593 0.005929 0.005929 0.005929 0.005929 0.005929 0.005929 0.005929 0.005929 0.005929 0.005929 0.005929 0.005929 0.005929 0.005929 0.00593 0.00593 0.00593 0.00593 0.00593 0.00593 
0.002582 0.002582 0.002581 0.002581 0.002581 0.002581 0.002581 0.002581 0.002581 0.002581 0.002581 0.002581 0.002581 0.002582 0.002582 0.002582 0.002582 0.002582 0.002582 0.002582 0.002582 
0.001024 0.001024 0.001024 0.001024 0.001024 0.001024 0.001024 0.001024 0.001024 0.001024 0.001024 0.001024 0.001024 0.001024 0.001024 0.001024 0.001024 0.001024 0.001024 0.001024 0.001024 
0.0003692 0.0003692 0.0003692 0.0003692 0.0003691 0.0003691 0.0003691 0.0003691 0.0003691 0.0003691 0.0003691 0.0003691 0.0003691 0.0003691 0.0003691 0.0003692 0.0003692 0.0003692 0.0003692 0.0003692 0.0003692 
0.0001207 0.0001207 0.0001207 0.0001207 0.0001207 0.0001207 0.0001207 0.0001207 0.0001207 0.0001207 0.0001207 0.0001207 0.0001207 0.0001207 0.0001207 0.0001207 0.0001207 0.0001207 0.0001207 0.0001207 0.0001207 
3.571e-05 3.571e-05 3.571e-05 3.571e-05 3.571e-05 3.57e-05 3.57e-05 3.57e-05 3.57e-05 3.57e-05 3.57e-05 3.57e-05 3.57e-05 3.57e-05 3.57e-05 3.57e-05 3.57e-05 3.57e-05 3.57e-05 3.57e-05 3.571e-05 
9.53e-06 9.531e-06 9.531e-06 9.531e-06 9.531e-06 9.53e-06 9.53e-06 9.529e-06 9.529e-06 9.528e-06 9.528e-06 9.528e-06 9.528e-06 9.528e-06 9.528e-06 9.528e-06 9.529e-06 9.529e-06 9.529e-06 9.53e-06 9.53e-06 
2.289e-06 2.289e-06 2.289e-06 2.289e-06 2.289e-06 2.289e-06 2.289e-06 2.289e-06 2.289e-06 2.289e-06 2.289e-06 2.289e-06 2.289e-06 2.289e-06 2.289e-06 2.289e-06 2.289e-06 2.289e-06 2.289e-06 2.289e-06 2.289e-06 
4.943e-07 4.943e-07 4.943e-07 4.943e-07 4.943e-07 4.943e-07 4.943e-07 4.943e-07 4.943e-07 4.943e-07 4.942e-07 4.942e-07 4.942e-07 4.942e-07 4.942e-07 4.942e-07 4.942e-07 4.942e-07 4.942e-07 4.942e-07 4.943e-07 
9.951e-08 9.951e-08 9.952e-08 9.952e-08 9.952e-08 9.953e-08 9.953e-08 9.953e-08 9.952e-08 9.952e-08 9.951e-08 9.951e-08 9.95e-08 9.95e-08 9.95e-08 9.949e-08 9.949e-08 9.95e-08 9.95e-08 9.95e-08 9.951e-08 
3.628e-08 3.628e-08 3.628e-08 3.628e-08 3.628e-08 3.628e-08 3.628e-08 3.628e-08 3.628e-08 3.628e-08 3.628e-08 3.628e-08 3.628e-08 3.628e-08 3.628e-08 3.628e-08 3.628e-08 3.628e-08 3.628e-08 3.628e-08 3.628e-08 
8.723e-08 8.723e-08 8.723e-08 8.723e-08 8.723e-08 8.723e-08 8.723e-08 8.723e-08 8.723e-08 8.723e-08 8.723e-08 8.723e-08 8.723e-08 8.723e-08 8.723e-08 8.723e-08 8.723e-08 8.723e-08 8.723e-08 8.723e-08 8.723e-08 
3.37e-07 3.37e-07 3.37e-07 3.37e-07 3.37e-07 3.37e-07 3.37e-07 3.37e-07 3.37e-07 3.37e-07 3.37e-07 3.37e-07 3.37e-07 3.37e-07 3.37e-07 3.37e-07 3.37e-07 3.37e-07 3.37e-07 3.37e-07 3.37e-07 
1.251e-06 1.251e-06 1.251e-06 1.251e-06 1.251e-06 1.251e-06 1.251e-06 1.251e-06 1.251e-06 1.251e-06 1.251e-06 1.251e-06 1.251e-06 1.251e-06 1.251e-06 1.251e-06 1.251e-06 1.251e-06 1.251e-06 1.251e-06 1.251e-06 
4.343e-06 4.343e-06 4.343e-06 4.343e-06 4.343e-06 4.343e-06 4.343e-06 4.343e-06 4.343e-06 4.343e-06 4.343e-06 4.343e-06 4.343e-06 4.343e-06 4.343e-06 4.343e-06 4.343e-06 4.343e-06 4.343e-06 4.343e-06 4.343e-06 
1.411e-05 1.411e-05 1.411e-05 1.411e-05 1.411e-05 1.411e-05 1.411e-05 1.411e-05 1.411e-05 1.411e-05 1.411e-05 1.411e-05 1.411e-05 1.411e-05 1.411e-05 1.411e-05 1.411e-05 1.411e-05 1.411e-05 1.411e-05 1.411e-05 
4.287e-05 4.287e-05 4.287e-05 4.287e-05 4.287e-05 4.287e-05 4.287e-05 4.287e-05 4.287e-05 4.287e-05 4.287e-05 4.287e-05 4.287e-05 4.287e-05 4.287e-05 4.287e-05 4.287e-05 4.287e-05 4.287e-05 4.287e-05 4.287e-05 
0.0001219 0.0001219 0.0001219 0.0001219 0.0001219 0.0001219 0.0001219 0.0001219 0.0001219 0.0001219 0.0001219 0.0001219 0.0001219 0.0001219 0.0001219 0.0001219 0.0001219 0.0001219 0.0001219 0.0001219 0.0001219 
</DataArray>
<DataArray Name="E" NumberOfComponents="1" format="ascii" type="Float64">
-1.333 -1.333 -1.333 -1.333 -1.333 -1.333 -1.333 -1.333 -1.333 -1.333 -1.333 -1.333 -1.333 -1.333 -1.333 -1.333 -1.333 -1.333 -1.333 -1.333 -1.333 
-1.333 -1.333 -1.333 -1.333 -1.333 -1.333 -1.333 -1.333 -1.333 -1.333 -1.333 -1.333 -1.333 -1.333 -1.333 -1.333 -1.333 -1.333 -1.333 -1.333 -1.333 
-1.333 -1.333 -1.333 -1.333 -1.333 -1.333 -1.333 -1.333 -1.333 -1.333 -1.333 -1.333 -1.333 -1.333 -1.333 -1.333 -1.333 -1.333 -1.333 -1.333 -1.333 
-1.333 -1.333 -1.333 -1.333 -1.333 -1.333 -1.333 -1.333 -1.333 -1.333 -1.333 -1.333 -1.333 -1.333 -1.333 -1.333 -1.333 -1.333 -1.333 -1.333 -1.333 
-1.333 -1.333 -1.333 -1.333 -1.333 -1.333 -1.333 -1.333 -1.333 -1.333 -1.333 -1.333 -1.333 -1.333 -1.333 -1.333 -1.333 -1.333 -1.333 -1.333 -1.333 
-1.333 -1.333 -1.333 -1.333 -1.333 -1.333 -1.333 -1.333 -1.333 -1.333 -1.333 -1.333 -1.333 -1.333 -1.333 -1.333 -1.333 -1.333 -1.333 -1.333 -1.333 
-1.333 -1.333 -1.333 -1.333 -1.333 -1.333 -1.333 -1.333 -1.333 -1.333 -1.333 -1.333 -1.333 -1.333 -1.333 -1.333 -1.333 -1.333 -1.333 -1.333 -1.333 
-1.333 -1.333 -1.333 -1.333 -1.333 -1.333 -1.333 -1.333 -1.333 -1.333 -1.333 -1.333 -1.333 -1.333 -1.333 -1.333 -1.333 -1.333 -1.333 -1.333 -1.333 
-1.333 -1.333 -1.333 -1.333 -1.333 -1.333 -1.333 -1.333 -1.333 -1.333 -1.333 -1.333 -1.333 -1.333 -1.333 -1.333 -1.333 -1.333 -1.333 -1.333 -1.333 
-1.333 -1.333 -1.333 -1.333 -1.333 -1.333 -1.333 -1.333 -1.333 -1.333 -1.333 -1.333 -1.333 -1.333 -1.333 -1.333 -1.333 -1.333 -1.333 -1.333 -1.333 
-1.333 -1.333 -1.333 -1.333 -1.333 -1.333 -1.333 -1.333 -1.333 -1.333 -1.333 -1.333 -1.333 -1.333 -1.333 -1.333 -1.333 -1.333 -1.333 -1.333 -1.333 
-1.333 -1.333 -1.333 -1.333 -1.333 -1.333 -1.333 -1.333 -1.333 -1.333 -1.333 -1.333 -1.333 -1.333 -1.333 -1.333 -1.333 -1.333 -1.333 -1.333 -1.333 
-1.333 -1.333 -1.333 -1.333 -1.333 -1.333 -1.333 -1.333 -1.333 -1.333 -1.333 -1.333 -1.333 -1.333 -1.333 -1.333 -1.333 -1.333 -1.333 -1.333 -1.333 
-1.333 -1.333 -1.333 -1.333 -1.333 -1.333 -1.333 -1.333 -1.333 -1.333 -1.333 -1.333 -1.333 -1.333 -1.333 -1.333 -1.333 -1.333 -1.333 -1.333 -1.333 
-1.333 -1.333 -1.333 -1.333 -1.333 -1.333 -1.333 -1.333 -1.333 -1.333 -1.333 -1.333 -1.333 -1.333 -1.333 -1.333 -1.333 -1.333 -1.333 -1.333 -1.333 
-1.333 -1.333 -1.333 -1.333 -1.333 -1.333 -1.333 -1.333 -1.333 -1.333 -1.333 -1.333 -1.333 -1.333 -1.333 -1.333 -1.333 -1.333 -1.333 -1.333 -1.333 
-1.333 -1.333 -1.333 -1.333 -1.333 -1.333 -1.333 -1.333 -1.333 -1.333 -1.333 -1.333 -1.333 -1.333 -1.333 -1.333 -1.333 -1.333 -1.333 -1.333 -1.333 
-1.333 -1.333 -1.333 -1.333 -1.333 -1.333 -1.333 -1.333 -1.333 -1.333 -1.333 -1.333 -1.333 -1.333 -1.333 -1.333 -1.333 -1.333 -1.333 -1.333 -1.333 
-1.333 -1.333 -1.333 -1.333 -1.333 -1.333 -1.333 -1.333 -1.333 -1.333 -1.333 -1.333 -1.333 -1.333 -1.333 -1.333 -1.333 -1.333 -1.333 -1.333 -1.333 
-1.333 -1.333 -1.333 -1.333 -1.333 -1.333 -1.333 -1.333 -1.333 -1.333 -1.333 -1.333 -1.333 -1.333 -1.333 -1.333 -1.333 -1.333 -1.333 -1.333 -1.333 
-1.333 -1.333 -1.333 -1.333 -1.333 -1.333 -1.333 -1.333 -1.333 -1.333 -1.333 -1.333 -1.333 -1.333 -1.333 -1.333 -1.333 -1.333 -1.333 -1.333 -1.333 
-1.333 -1.333 -1.333 -1.333 -1.333 -1.333 -1.333 -1.333 -1.333 -1.333 -1.333 -1.333 -1.333 -1.333 -1.333 -1.333 -1.333 -1.333 -1.333 -1.333 -1.333 
-1.333 -1.333 -1.333 -1.333 -1.333 -1.333 -1.333 -1.333 -1.333 -1.333 -1.333 -1.333 -1.333 -1.333 -1.333 -1.333 -1.333 -1.333 -1.333 -1.333 -1.333 
-1.333 -1.333 -1.333 -1.333 -1.333 -1.333 -1.333 -1.333 -1.333 -1.333 -1.333 -1.333 -1.333 -1.333 -1.333 -1.333 -1.333 -1.333 -1.333 -1.333 -1.333 
-1.333 -1.333 -1.333 -1.333 -1.333 -1.333 -1.333 -1.333 -1.333 -1.333 -1.333 -1.333 -1.333 -1.333 -1.333 -1.333 -1.333 -1.333 -1.333 -1.333 -1.333 
-1.333 -1.333 -1.333 -1.333 -1.333 -1.333 -1.333 -1.333 -1.333 -1.333 -1.333 -1.333 -1.333 -1.333 -1.333 -1.333 -1.333 -1.333 -1.333 -1.333 -1.333 
-1.333 -1.333 -1.333 -1.333 -1.333 -1.333 -1.333 -1.333 -1.333 -1.333 -1.333 -1.333 -1.333 -1.333 -1.333 -1.333 -1.333 -1.333 -1.333 -1.333 -1.333 
-1.333 -1.333 -1.333 -1.333 -1.333 -1.333 -1.333 -1.333 -1.333 -1.333 -1.333 -1.333 -1.333 -1.333 -1.333 -1.333 -1.333 -1.333 -1.333 -1.333 -1.333 
-1.333 -1.333 -1.333 -1.333 -1.333 -1.333 -1.333 -1.333 -1.333 -1.333 -1.333 -1.333 -1.333 -1.333 -1.333 -1.333 -1.333 -1.333 -1.333 -1.333 -1.333 
-1.333 -1.333 -1.333 -1.333 -1.333 -1.333 -1.333 -1.333 -1.333 -1.333 -1.333 -1.333 -1.333 -1.333 -1.333 -1.333 -1.333 -1.333 -1.333 -1.333 -1.333 
-1.333 -1.333 -1.333 -1.333 -1.333 -1.333 -1.333 -1.333 -1.333 -1.333 -1.333 -1.333 -1.333 -1.333 -1.333 -1.333 -1.333 -1.333 -1.333 -1.333 -1.333 
-1.333 -1.333 -1.333 -1.333 -1.333 -1.333 -1.333 -1.333 -1.333 -1.333 -1.333 -1.333 -1.333 -1.333 -1.333 -1.333 -1.333 -1.333 -1.333 -1.333 -1.333 
-1.333 -1.333 -1.333 -1.333 -1.333 -1.333 -1.333 -1.333 -1.333 -1.333 -1.333 -1.333 -1.333 -1.333 -1.333 -1.333 -1.333 -1.333 -1.333 -1.333 -1.333 
-1.333 -1.333 -1.333 -1.333 -1.333 -1.333 -1.333 -1.333 -1.333 -1.333 -1.333 -1.333 -1.333 -1.333 -1.333 -1.333 -1.333 -1.333 -1.333 -1.333 -1.333 
-1.333 -1.333 -1.333 -1.333 -1.333 -1.333 -1.333 -1.333 -1.333 -1.333 -1.333 -1.333 -1.333 -1.333 -1.333 -1.333 -1.333 -1.333 -1.333 -1.333 -1.333 
-1.333 -1.333 -1.333 -1.333 -1.333 -1.333 -1.333 -1.333 -1.333 -1.333 -1.333 -1.333 -1.333 -1.333 -1.333 -1.333 -1.333 -1.333 -1.333 -1.333 -1.333 
-1.333 -1.333 -1.333 -1.333 -1.333 -1.333 -1.333 -1.333 -1.333 -1.333 -1.333 -1.333 -1.333 -1.333 -1.333 -1.333 -1.333 -1.333 -1.333 -1.333 -1.333 
-1.333 -1.333 -1.333 -1.333 -1.333 -1.333 -1.333 -1.333 -1.333 -1.333 -1.333 -1.333 -1.333 -1.333 -1.333 -1.333 -1.333 -1.333 -1.333 -1.333 -1.333 
-1.333 -1.333 -1.333 -1.333 -1.333 -1.333 -1.333 -1.333 -1.333 -1.333 -1.333 -1.333 -1.333 -1.333 -1.333 -1.333 -1.333 -1.333 -1.333 -1.333 -1.333 
-1.333 -1.333 -1.333 -1.333 -1.333 -1.333 -1.333 -1.333 -1.333 -1.333 -1.333 -1.333 -1.333 -1.333 -1.333 -1.333 -1.333 -1.333 -1.333 -1.333 -1.333 
-1.333 -1.333 -1.333 -1.333 -1.333 -1.333 -1.333 -1.333 -1.333 -1.333 -1.333 -1.333 -1.333 -1.333 -1.333 -1.333 -1.333 -1.333 -1.333 -1.333 -1.333 
</DataArray>
<DataArray Name="ne" NumberOfComponents="1" format="ascii" type="Float64">
0.9999 0.9999 0.9999 0.9999 0.9999 0.9999 0.9999 0.9999 0.9999 0.9999 0.9999 0.9999 0.9999 0.9999 0.9999 0.9999 0.9999 0.9999 0.9999 0.9999 0.9999 
0.9999 0.9999 0.9999 0.9999 0.9999 0.9999 0.9999 0.9999 0.9999 0.9999 0.9999 0.9999 0.9999 0.9999 0.9999 0.9999 0.9999 0.9999 0.9999 0.9999 0.9999 
0.9999 0.9999 0.9999 0.9999 0.9999 0.9999 0.9999 0.9999 0.9999 0.9999 0.9999 0.9999 0.9999 0.9999 0.9999 0.9999 0.9999 0.9999 0.9999 0.9999 0.9999 
0.9999 0.9999 0.9999 0.9999 0.9999 0.9999 0.9999 0.9999 0.9999 0.9999 0.9999 0.9999 0.9999 0.9999 0.9999 0.9999 0.9999 0.9999 0.9999 0.9999 0.9999 
0.9999 0.9999 0.9999 0.9999 0.9999 0.9999 0.9999 0.9999 0.9999 0.9999 0.9999 0.9999 0.9999 0.9999 0.9999 0.9999 0.9999 0.9999 0.9999 0.9999 0.9999 
0.9999 0.9999 0.9999 0.9999 0.9999 0.9999 0.9999 0.9999 0.9999 0.9999 0.9999 0.9999 0.9999 0.9999 0.9999 0.9999 0.9999 0.9999 0.9999 0.9999 0.9999 
0.9999 0.9999 0.9999 0.9999 0.9999 0.9999 0.9999 0.9999 0.9999 0.9999 0.9999 0.9999 0.9999 0.9999 0.9999 0.9999 0.9999 0.9999 0.9999 0.9999 0.9999 
0.9999 0.9999 0.9999 0.9999 0.9999 0.9999 0.9999 0.9999 0.9999 0.9999 0.9999 0.9999 0.9999 0.9999 0.9999 0.9999 0.9999 0.9999 0.9999 0.9999 0.9999 
0.9999 0.9999 0.9999 0.9999 0.9999 0.9999 0.9999 0.9999 0.9999 0.9999 0.9999 0.9999 0.9999 0.9999 0.9999 0.9999 0.9999 0.9999 0.9999 0.9999 0.9999 
0.9999 0.9999 0.9999 0.9999 0.9999 0.9999 0.9999 0.9999 0.9999 0.9999 0.9999 0.9999 0.9999 0.9999 0.9999 0.9999 0.9999 0.9999 0.9999 0.9999 0.9999 
0.9999 0.9999 0.9999 0.9999 0.9999 0.9999 0.9999 0.9999 0.9999 0.9999 0.9999 0.9999 0.9999 0.9999 0.9999 0.9999 0.9999 0.9999 0.9999 0.9999 0.9999 
0.9999 0.9999 0.9999 0.9999 0.9999 0.9999 0.9999 0.9999 0.9999 0.9999 0.9999 0.9999 0.9999 0.9999 0.9999 0.9999 0.9999 0.9999 0.9999 0.9999 0.9999 
0.9999 0.9999 0.9999 0.9999 0.9999 0.9999 0.9999 0.9999 0.9999 0.9999 0.9999 0.9999 0.9999 0.9999 0.9999 0.9999 0.9999 0.9999 0.9999 0.9999 0.9999 
0.9999 0.9999 0.9999 0.9999 0.9999 0.9999 0.9999 0.9999 0.9999 0.9999 0.9999 0.9999 0.9999 0.9999 0.9999 0.9999 0.9999 0.9999 0.9999 0.9999 0.9999 
0.9999 0.9999 0.9999 0.9999 0.9999 0.9999 0.9999 0.9999 0.9999 0.9999 0.9999 0.9999 0.9999 0.9999 0.9999 0.9999 0.9999 0.9999 0.9999 0.9999 0.9999 
0.9999 0.9999 0.9999 0.9999 0.9999 0.9999 0.9999 0.9999 0.9999 0.9999 0.9999 0.9999 0.9999 0.9999 0.9999 0.9999 0.9999 0.9999 0.9999 0.9999 0.9999 
0.9999 0.9999 0.9999 0.9999 0.9999 0.9999 0.9999 0.9999 0.9999 0.9999 0.9999 0.9999 0.9999 0.9999 0.9999 0.9999 0.9999 0.9999 0.9999 0.9999 0.9999 
0.9999 0.9999 0.9999 0.9999 0.9999 0.9999 0.9999 0.9999 0.9999 0.9999 0.9999 0.9999 0.9999 0.9999 0.9999 0.9999 0.9999 0.9999 0.9999 0.9999 0.9999 
0.9999 0.9999 0.9999 0.9999 0.9999 0.9999 0.9999 0.9999 0.9999 0.9999 0.9999 0.9999 0.9999 0.9999 0.9999 0.9999 0.9999 0.9999 0.9999 0.9999 0.9999 
0.9999 0.9999 0.9999 0.9999 0.9999 0.9999 0.9999 0.9999 0.9999 0.9999 0.9999 0.9999 0.9999 0.9999 0.9999 0.9999 0.9999 0.9999 0.9999 0.9999 0.9999 
0.9999 0.9999 0.9999 0.9999 0.9999 0.9999 0.9999 0.9999 0.9999 0.9999 0.9999 0.9999 0.9999 0.9999 0.9999 0.9999 0.9999 0.9999 0.9999 0.9999 0.9999 
0.9999 0.9999 0.9999 0.9999 0.9999 0.9999 0.9999 0.9999 0.9999 0.9999 0.9999 0.9999 0.9999 0.9999 0.9999 0.9999 0.9999 0.9999 0.9999 0.9999 0.9999 
0.9999 0.9999 0.9999 0.9999 0.9999 0.9999 0.9999 0.9999 0.9999 0.9999 0.9999 0.9999 0.9999 0.9999 0.9999 0.9999 0.9999 0.9999 0.9999 0.9999 0.9999 
0.9999 0.9999 0.9999 0.9999 0.9999 0.9999 0.9999 0.9999 0.9999 0.9999 0.9999 0.9999 0.9999 0.9999 0.9999 0.9999 0.9999 0.9999 0.9999 0.9999 0.9999 
0.9999 0.9999 0.9999 0.9999 0.9999 0.9999 0.9999 0.9999 0.9999 0.9999 0.9999 0.9999 0.9999 0.9999 0.9999 0.9999 0.9999 0.9999 0.9999 0.9999 0.9999 
0.9999 0.9999 0.9999 0.9999 0.9999 0.9999 0.9999 0.9999 0.9999 0.9999 0.9999 0.9999 0.9999 0.9999 0.9999 0.9999 0.9999 0.9999 0.9999 0.9999 0.9999 
0.9999 0.9999 0.9999 0.9999 0.9999 0.9999 0.9999 0.9999 0.9999 0.9999 0.9999 0.9999 0.9999 0.9999 0.9999 0.9999 0.9999 0.9999 0.9999 0.9999 0.9999 
0.9999 0.9999 0.9999 0.9999 0.9999 0.9999 0.9999 0.9999 0.9999 0.9999 0.9999 0.9999 0.9999 0.9999 0.9999 0.9999 0.9999 0.9999 0.9999 0.9999 0.9999 
0.9999 0.9999 0.9999 0.9999 0.9999 0.9999 0.9999 0.9999 0.9999 0.9999 0.9999 0.9999 0.9999 0.9999 0.9999 0.9999 0.9999 0.9999 0.9999 0.9999 0.9999 
0.9999 0.9999 0.9999 0.9999 0.9999 0.9999 0.9999 0.9999 0.9999 0.9999 0.9999 0.9999 0.9999 0.9999 0.9999 0.9999 0.9999 0.9999 0.9999 0.9999 0.9999 
0.9999 0.9999 0.9999 0.9999 0.9999 0.9999 0.9999 0.9999 0.9999 0.9999 0.9999 0.9999 0.9999 0.9999 0.9999 0.9999 0.9999 0.9999 0.9999 0.9999 0.9999 
0.9999 0.9999 0.9999 0.9999 0.9999 0.9999 0.9999 0.9999 0.9999 0.9999 0.9999 0.9999 0.9999 0.9999 0.9999 0.9999 0.9999 0.9999 0.9999 0.9999 0.9999 
0.9999 0.9999 0.9999 0.9999 0.9999 0.9999 0.9999 0.9999 0.9999 0.9999 0.9999 0.9999 0.9999 0.9999 0.9999 0.9999 0.9999 0.9999 0.9999 0.9999 0.9999 
0.9999 0.9999 0.9999 0.9999 0.9999 0.9999 0.9999 0.9999 0.9999 0.9999 0.9999 0.9999 0.9999 0.9999 0.9999 0.9999 0.9999 0.9999 0.9999 0.9999 0.9999 
0.9999 0.9999 0.9999 0.9999 0.9999 0.9999 0.9999 0.9999 0.9999 0.9999 0.9999 0.9999 0.9999 0.9999 0.9999 0.9999 0.9999 0.9999 0.9999 0.9999 0.9999 
0.9999 0.9999 0.9999 0.9999 0.9999 0.9999 0.9999 0.9999 0.9999 0.9999 0.9999 0.9999 0.9999 0.9999 0.9999 0.9999 0.9999 0.9999 0.9999 0.9999 0.9999 
0.9999 0.9999 0.9999 0.9999 0.9999 0.9999 0.9999 0.9999 0.9999 0.9999 0.9999 0.9999 0.9999 0.9999 0.9999 0.9999 0.9999 0.9999 0.9999 0.9999 0.9999 
0.9999 0.9999 0.9999 0.9999 0.9999 0.9999 0.9999 0.9999 0.9999 0.9999 0.9999 0.9999 0.9999 0.9999 0.9999 0.9999 0.9999 0.9999 0.9999 0.9999 0.9999 
0.9999 0.9999 0.9999 0.9999 0.9999 0.9999 0.9999 0.9999 0.9999 0.9999 0.9999 0.9999 0.9999 0.9999 0.9999 0.9999 0.9999 0.9999 0.9999 0.9999 0.9999 
0.9999 0.9999 0.9999 0.9999 0.9999 0.9999 0.9999 0.9999 0.9999 0.9999 0.9999 0.9999 0.9999 0.9999 0.9999 0.9999 0.9999 0.9999 0.9999 0.9999 0.9999 
0.9999 0.9999 0.9999 0.9999 0.9999 0.9999 0.9999 0.9999 0.9999 0.9999 0.9999 0.9999 0.9999 0.9999 0.9999 0.9999 0.9999 0.9999 0.9999 0.9999 0.9999 
</DataArray>
</PointData>
</Piece>
</ImageData>
</VTKFile>
