<VTKFile type="ImageData">
<ImageData Origin="0 -10 0" Spacing="0.5 0.5 1" WholeExtent="0 20 0 40 0 0">
<Piece Extent="0 20 0 40 0 0">
<PointData>
<DataArray Name="f" NumberOfComponents="1" format="ascii" type="Float64">
2.53e-05 2.53e-05 2.53e-05 2.53e-05 2.53e-05 2.53e-05 2.53e-05 2.53e-05 2.53e-05 2.53e-05 2.53e-05 2.53e-05 2.53e-05 2.53e-05 2.53e-05 2.53e-05 2.53e-05 2.53e-05 2.53e-05 2.53e-05 2.53e-05 
9.764e-06 9.764e-06 9.764e-06 9.764e-06 9.764e-06 9.764e-06 9.764e-06 9.764e-06 9.764e-06 9.764e-06 9.764e-06 9.764e-06 9.764e-06 9.764e-06 9.764e-06 9.764e-06 9.764e-06 9.764e-06 9.764e-06 9.764e-06 9.764e-06 
5.499e-06 5.499e-06 5.499e-06 5.499e-06 5.499e-06 5.499e-06 5.499e-06 5.499e-06 5.499e-06 5.499e-06 5.499e-06 5.499e-06 5.499e-06 5.499e-06 5.499e-06 5.499e-06 5.499e-06 5.499e-06 5.499e-06 5.499e-06 5.499e-06 
8.127e-06 8.127e-06 8.127e-06 8.127e-06 8.127e-06 8.127e-06 8.127e-06 8.127e-06 8.127e-06 8.127e-06 8.127e-06 8.127e-06 8.127e-06 8.127e-06 8.127e-06 8.127e-06 8.127e-06 8.127e-06 8.127e-06 8.127e-06 8.127e-06 
1.986e-05 1.986e-05 1.986e-05 1.986e-05 1.986e-05 1.986e-05 1.986e-05 1.986e-05 1.986e-05 1.986e-05 1.986e-05 1.986e-05 1.986e-05 1.986e-05 1.986e-05 1.986e-05 1.986e-05 1.986e-05 1.986e-05 1.986e-05 1.986e-05 
5.071e-05 5.071e-05 5.071e-05 5.071e-05 5.071e-05 5.071e-05 5.071e-05 5.071e-05 5.071e-05 5.071e-05 5.071e-05 5.071e-05 5.071e-05 5.071e-05 5.071e-05 5.071e-05 5.071e-05 5.071e-05 5.071e-05 5.071e-05 5.071e-05 
0.0001242 0.0001242 0.0001242 0.0001242 0.0001242 0.0001242 0.0001242 0.0001242 0.0001242 0.0001242 0.0001242 0.0001242 0.0001242 0.0001242 0.0001242 0.0001242 0.0001242 0.0001242 0.0001242 0.0001242 0.0001242 
0.0002888 0.0002888 0.0002888 0.0002888 0.0002888 0.0002888 0.0002888 0.0002888 0.0002888 0.0002888 0.0002888 0.0002888 0.0002888 0.0002888 0.0002888 0.0002888 0.0002888 0.0002888 0.0002888 0.0002888 0.0002888 
0.0006374 0.0006374 0.0006374 0.0006374 0.0006374 0.0006374 0.0006374 0.0006374 0.0006374 0.0006374 0.0006374 0.0006374 0.0006374 0.0006374 0.0006374 0.0006374 0.0006374 0.0006374 0.0006374 0.0006374 0.0006374 
0.001335 0.001335 0.001335 0.001335 0.001335 0.001335 0.001335 0.001335 0.001335 0.001335 0.001335 0.001335 0.001335 0.001335 0.001335 0.001335 0.001335 0.001335 0.001335 0.001335 0.001335 
0.002654 0.002654 0.002654 0.002654 0.002654 0.002654 0.002654 0.002654 0.002654 0.002654 0.002654 0.002654 0.002654 0.002654 0.002654 0.002654 0.002654 0.002654 0.002654 0.002654 0.002654 
0.005009 0.005009 0.005009 0.005009 0.005009 0.005009 0.005009 0.005009 0.005009 0.005009 0.005009 0.005009 0.005009 0.005009 0.005009 0.005009 0.005009 0.005009 0.005009 0.005009 0.005009 
0.008976 0.008976 0.008976 0.008976 0.008976 0.008976 0.008976 0.008976 0.008976 0.008976 0.008976 0.008976 0.008976 0.008976 0.008976 0.008976 0.008976 0.008976 0.008976 0.008976 0.008976 
0.01527 0.01527 0.01527 0.01527 0.01527 0.01527 0.01527 0.01527 0.01527 0.01527 0.01527 0.01527 0.01527 0.01527 0.01527 0.01527 0.01527 0.01527 0.01527 0.01527 0.01527 
0.02468 0.02468 0.02468 0.02468 0.02468 0.02468 0.02468 0.02468 0.02468 0.02468 0.02468 0.02468 0.02468 0.02468 0.02468 0.02468 0.02468 0.02468 0.02468 0.02468 0.02468 
0.03788 0.03788 0.03788 0.03788 0.03788 0.03788 0.03788 0.03788 0.03788 0.03788 0.03788 0.03788 0.03788 0.03788 0.03788 0.03788 0.03788 0.03788 0.03788 0.03788 0.03788 
0.05521 0.05521 0.05521 0.05521 0.05521 0.05521 0.05521 0.05521 0.05521 0.05521 0.05521 0.05521 0.05521 0.05521 0.05521 0.05521 0.05521 0.05521 0.05521 0.05521 0.05521 
0.07643 0.07643 0.07643 0.07643 0.07643 0.07643 0.07643 0.07643 0.07643 0.07643 0.07643 0.07643 0.07643 0.07643 0.07643 0.07643 0.07643 0.07643 0.07643 0.07643 0.07643 
0.1005 0.1005 0.1005 0.1005 0.1005 0.1005 0.1005 0.1005 0.1005 0.1005 0.1005 0.1005 0.1005 0.1005 0.1005 0.1005 0.1005 0.1005 0.1005 0.1005 0.1005 
0.1255 0.1255 0.1255 0.1255 0.1255 0.1255 0.1255 0.1255 0.1255 0.1255 0.1255 0.1255 0.1255 0.1255 0.1255 0.1255 0.1255 0.1255 0.1255 0.1255 0.1255 
0.1488 0.1488 0.1488 0.1488 0.1488 0.1488 0.1488 0.1488 0.1488 0.1488 0.1488 0.1488 0.1488 0.1488 0.1488 0.1488 0.1488 0.1488 0.1488 0.1488 0.1488 
0.1676 0.1676 0.1676 0.1676 0.1676 0.1676 0.1676 0.1676 0.1676 0.1676 0.1676 0.1676 0.1676 0.1676 0.1676 0.1676 0.1676 0.1676 0.1676 0.1676 0.1676 
0.1792 0.1792 0.1792 0.1792 0.1792 0.1792 0.1792 0.1792 0.1792 0.1792 0.1792 0.1792 0.1792 0.1792 0.1792 0.1792 0.1792 0.1792 0.1792 0.1792 0.1792 
0.1819 0.1819 0.1819 0.1819 0.1819 0.1819 0.1819 0.1819 0.1819 0.1819 0.1819 0.1819 0.1819 0.1819 0.1819 0.1819 0.1819 0.1819 0.1819 0.1819 0.1819 
0.1753 0.1753 0.1753 0.1753 0.1753 0.1754 0.1754 0.1754 0.1754 0.1754 0.1754 0.1754 0.1754 0.1754 0.1754 0.1754 0.1754 0.1753 0.1753 0.1753 0.1753 
0.1604 0.1604 0.1604 0.1604 0.1604 0.1604 0.1604 0.1604 0.1604 0.1604 0.1604 0.1604 0.1604 0.1604 0.1604 0.1604 0.1604 0.1604 0.1604 0.1604 0.1604 
0.1392 0.1392 0.1392 0.1392 0.1392 0.1392 0.1392 0.1392 0.1392 0.1392 0.1392 0.1392 0.1392 0.1392 0.1392 0.1392 0.1392 0.1392 0.1392 0.1392 0.1392 
0.1147 0.1147 0.1147 0.1147 0.1147 0.1147 0.1147 0.1147 0.1147 0.1147 0.1147 0.1147 0.1147 0.1147 0.1147 0.1147 0.1147 0.1147 0.1147 0.1147 0.1147 
0.08959 0.08959 0.08959 0.08959 0.08959 0.08959 0.08959 0.08959 0.08959 0.08959 0.08959 0.08959 0.08959 0.08959 0.08959 0.08959 0.08959 0.08959 0.08959 0.08959 0.08959 
0.06637 0.06637 0.06637 0.06637 0.06637 0.06637 0.06637 0.06637 0.06637 0.06637 0.06637 0.06637 0.06637 0.06637 0.06637 0.06637 0.06637 0.06637 0.06637 0.06637 0.06637 
0.04661 0.04661 0.04661 0.04661 0.04661 0.04661 0.04661 0.04661 0.04661 0.04661 0.04661 0.04661 0.04661 0.04661 0.04661 0.04661 0.04661 0.04661 0.04661 0.04661 0.04661 
0.03102 0.03102 0.03102 0.03102 0.03102 0.03102 0.03102 0.03102 0.03102 0.03102 0.03102 0.03102 0.03102 0.03102 0.03102 0.03102 0.03102 0.03102 0.03102 0.03102 0.03102 
0.01956 0.01956 0.01956 0.01956 0.01956 0.01956 0.01956 0.01956 0.01956 0.01956 0.01956 0.01956 0.01956 0.01956 0.01956 0.01956 0.01956 0.01956 0.01956 0.01956 0.01956 
0.01168 0.01168 0.01168 0.01168 0.01168 0.01168 0.01168 0.01168 0.01168 0.01168 0.01168 0.01168 0.01168 0.01168 0.01168 0.01168 0.01168 0.01168 0.01168 0.01168 0.01168 
0.006602 0.006602 0.006602 0.006602 0.006602 0.006602 0.006602 0.006602 0.006602 0.006602 0.006602 0.006602 0.006602 0.006602 0.006602 0.006602 0.006602 0.006602 0.006602 0.006602 0.006602 
0.003531 0.003531 0.003531 0.003531 0.003531 0.003531 0.003531 0.003531 0.003531 0.003531 0.003531 0.003531 0.003531 0.003531 0.003531 0.003531 0.003531 0.003531 0.003531 0.003531 0.003531 
0.001786 0.001786 0.001786 0.001786 0.001786 0.001786 0.001786 0.001786 0.001786 0.001786 0.001786 0.001786 0.001786 0.001786 0.001786 0.001786 0.001786 0.001786 0.001786 0.001786 0.001786 
0.0008535 0.0008536 0.0008536 0.0008536 0.0008536 0.0008536 0.0008536 0.0008536 0.0008536 0.0008536 0.0008536 0.0008536 0.0008536 0.0008536 0.0008536 0.0008536 0.0008536 0.0008535 0.0008535 0.0008535 0.0008535 
0.0003854 0.0003854 0.0003854 0.0003854 0.0003854 0.0003854 0.0003854 0.0003854 0.0003854 0.0003854 0.0003854 0.0003854 0.0003854 0.0003854 0.0003854 0.0003854 0.0003854 0.0003854 0.0003854 0.0003854 0.0003854 
0.0001643 0.0001643 0.0001643 0.0001643 0.0001643 0.0001643 0.0001643 0.0001643 0.0001643 0.0001643 0.0001643 0.0001643 0.0001643 0.0001643 0.0001643 0.0001643 0.0001643 0.0001643 0.0001643 0.0001643 0.0001643 
6.615e-05 6.615e-05 6.615e-05 6.615e-05 6.615e-05 6.615e-05 6.615e-05 6.615e-05 6.615e-05 6.615e-05 6.615e-05 6.615e-05 6.615e-05 6.615e-05 6.615e-05 6.615e-05 6.615e-05 6.615e-05 6.615e-05 6.615e-05 6.615e-05 
</DataArray>
<DataArray Name="E" NumberOfComponents="1" format="ascii" type="Float64">
-1.46 -1.46 -1.46 -1.46 -1.46 -1.46 -1.46 -1.46 -1.46 -1.46 -1.46 -1.46 -1.46 -1.46 -1.46 -1.46 -1.46 -1.46 -1.46 -1.46 -1.46 
-1.46 -1.46 -1.46 -1.46 -1.46 -1.46 -1.46 -1.46 -1.46 -1.46 -1.46 -1.46 -1.46 -1.46 -1.46 -1.46 -1.46 -1.46 -1.46 -1.46 -1.46 
-1.46 -1.46 -1.46 -1.46 -1.46 -1.46 -1.46 -1.46 -1.46 -1.46 -1.46 -1.46 -1.46 -1.46 -1.46 -1.46 -1.46 -1.46 -1.46 -1.46 -1.46 
-1.46 -1.46 -1.46 -1.46 -1.46 -1.46 -1.46 -1.46 -1.46 -1.46 -1.46 -1.46 -1.46 -1.46 -1.46 -1.46 -1.46 -1.46 -1.46 -1.46 -1.46 
-1.46 -1.46 -1.46 -1.46 -1.46 -1.46 -1.46 -1.46 -1.46 -1.46 -1.46 -1.46 -1.46 -1.46 -1.46 -1.46 -1.46 -1.46 -1.46 -1.46 -1.46 
-1.46 -1.46 -1.46 -1.46 -1.46 -1.46 -1.46 -1.46 -1.46 -1.46 -1.46 -1.46 -1.46 -1.46 -1.46 -1.46 -1.46 -1.46 -1.46 -1.46 -1.46 
-1.46 -1.46 -1.46 -1.46 -1.46 -1.46 -1.46 -1.46 -1.46 -1.46 -1.46 -1.46 -1.46 -1.46 -1.46 -1.46 -1.46 -1.46 -1.46 -1.46 -1.46 
-1.46 -1.46 -1.46 -1.46 -1.46 -1.46 -1.46 -1.46 -1.46 -1.46 -1.46 -1.46 -1.46 -1.46 -1.46 -1.46 -1.46 -1.46 -1.46 -1.46 -1.46 
-1.46 -1.46 -1.46 -1.46 -1.46 -1.46 -1.46 -1.46 -1.46 -1.46 -1.46 -1.46 -1.46 -1.46 -1.46 -1.46 -1.46 -1.46 -1.46 -1.46 -1.46 
-1.46 -1.46 -1.46 -1.46 -1.46 -1.46 -1.46 -1.46 -1.46 -1.46 -1.46 -1.46 -1.46 -1.46 -1.46 -1.46 -1.46 -1.46 -1.46 -1.46 -1.46 
-1.46 -1.46 -1.46 -1.46 -1.46 -1.46 -1.46 -1.46 -1.46 -1.46 -1.46 -1.46 -1.46 -1.46 -1.46 -1.46 -1.46 -1.46 -1.46 -1.46 -1.46 
-1.46 -1.46 -1.46 -1.46 -1.46 -1.46 -1.46 -1.46 -1.46 -1.46 -1.46 -1.46 -1.46 -1.46 -1.46 -1.46 -1.46 -1.46 -1.46 -1.46 -1.46 
-1.46 -1.46 -1.46 -1.46 -1.46 -1.46 -1.46 -1.46 -1.46 -1.46 -1.46 -1.46 -1.46 -1.46 -1.46 -1.46 -1.46 -1.46 -1.46 -1.46 -1.46 
-1.46 -1.46 -1.46 -1.46 -1.46 -1.46 -1.46 -1.46 -1.46 -1.46 -1.46 -1.46 -1.46 -1.46 -1.46 -1.46 -1.46 -1.46 -1.46 -1.46 -1.46 
-1.46 -1.46 -1.46 -1.46 -1.46 -1.46 -1.46 -1.46 -1.46 -1.46 -1.46 -1.46 -1.46 -1.46 -1.46 -1.46 -1.46 -1.46 -1.46 -1.46 -1.46 
-1.46 -1.46 -1.46 -1.46 -1.46 -1.46 -1.46 -1.46 -1.46 -1.46 -1.46 -1.46 -1.46 -1.46 -1.46 -1.46 -1.46 -1.46 -1.46 -1.46 -1.46 
-1.46 -1.46 -1.46 -1.46 -1.46 -1.46 -1.46 -1.46 -1.46 -1.46 -1.46 -1.46 -1.46 -1.46 -1.46 -1.46 -1.46 -1.46 -1.46 -1.46 -1.46 
-1.46 -1.46 -1.46 -1.46 -1.46 -1.46 -1.46 -1.46 -1.46 -1.46 -1.46 -1.46 -1.46 -1.46 -1.46 -1.46 -1.46 -1.46 -1.46 -1.46 -1.46 
-1.46 -1.46 -1.46 -1.46 -1.46 -1.46 -1.46 -1.46 -1.46 -1.46 -1.46 -1.46 -1.46 -1.46 -1.46 -1.46 -1.46 -1.46 -1.46 -1.46 -1.46 
-1.46 -1.46 -1.46 -1.46 -1.46 -1.46 -1.46 -1.46 -1.46 -1.46 -1.46 -1.46 -1.46 -1.46 -1.46 -1.46 -1.46 -1.46 -1.46 -1.46 -1.46 
-1.46 -1.46 -1.46 -1.46 -1.46 -1.46 -1.46 -1.46 -1.46 -1.46 -1.46 -1.46 -1.46 -1.46 -1.46 -1.46 -1.46 -1.46 -1.46 -1.46 -1.46 
-1.46 -1.46 -1.46 -1.46 -1.46 -1.46 -1.46 -1.46 -1.46 -1.46 -1.46 -1.46 -1.46 -1.46 -1.46 -1.46 -1.46 -1.46 -1.46 -1.46 -1.46 
-1.46 -1.46 -1.46 -1.46 -1.46 -1.46 -1.46 -1.46 -1.46 -1.46 -1.46 -1.46 -1.46 -1.46 -1.46 -1.46 -1.46 -1.46 -1.46 -1.46 -1.46 
-1.46 -1.46 -1.46 -1.46 -1.46 -1.46 -1.46 -1.46 -1.46 -1.46 -1.46 -1.46 -1.46 -1.46 -1.46 -1.46 -1.46 -1.46 -1.46 -1.46 -1.46 
-1.46 -1.46 -1.46 -1.46 -1.46 -1.46 -1.46 -1.46 -1.46 -1.46 -1.46 -1.46 -1.46 -1.46 -1.46 -1.46 -1.46 -1.46 -1.46 -1.46 -1.46 
-1.46 -1.46 -1.46 -1.46 -1.46 -1.46 -1.46 -1.46 -1.46 -1.46 -1.46 -1.46 -1.46 -1.46 -1.46 -1.46 -1.46 -1.46 -1.46 -1.46 -1.46 
-1.46 -1.46 -1.46 -1.46 -1.46 -1.46 -1.46 -1.46 -1.46 -1.46 -1.46 -1.46 -1.46 -1.46 -1.46 -1.46 -1.46 -1.46 -1.46 -1.46 -1.46 
-1.46 -1.46 -1.46 -1.46 -1.46 -1.46 -1.46 -1.46 -1.46 -1.46 -1.46 -1.46 -1.46 -1.46 -1.46 -1.46 -1.46 -1.46 -1.46 -1.46 -1.46 
-1.46 -1.46 -1.46 -1.46 -1.46 -1.46 -1.46 -1.46 -1.46 -1.46 -1.46 -1.46 -1.46 -1.46 -1.46 -1.46 -1.46 -1.46 -1.46 -1.46 -1.46 
-1.46 -1.46 -1.46 -1.46 -1.46 -1.46 -1.46 -1.46 -1.46 -1.46 -1.46 -1.46 -1.46 -1.46 -1.46 -1.46 -1.46 -1.46 -1.46 -1.46 -1.46 
-1.46 -1.46 -1.46 -1.46 -1.46 -1.46 -1.46 -1.46 -1.46 -1.46 -1.46 -1.46 -1.46 -1.46 -1.46 -1.46 -1.46 -1.46 -1.46 -1.46 -1.46 
-1.46 -1.46 -1.46 -1.46 -1.46 -1.46 -1.46 -1.46 -1.46 -1.46 -1.46 -1.46 -1.46 -1.46 -1.46 -1.46 -1.46 -1.46 -1.46 -1.46 -1.46 
-1.46 -1.46 -1.46 -1.46 -1.46 -1.46 -1.46 -1.46 -1.46 -1.46 -1.46 -1.46 -1.46 -1.46 -1.46 -1.46 -1.46 -1.46 -1.46 -1.46 -1.46 
-1.46 -1.46 -1.46 -1.46 -1.46 -1.46 -1.46 -1.46 -1.46 -1.46 -1.46 -1.46 -1.46 -1.46 -1.46 -1.46 -1.46 -1.46 -1.46 -1.46 -1.46 
-1.46 -1.46 -1.46 -1.46 -1.46 -1.46 -1.46 -1.46 -1.46 -1.46 -1.46 -1.46 -1.46 -1.46 -1.46 -1.46 -1.46 -1.46 -1.46 -1.46 -1.46 
-1.46 -1.46 -1.46 -1.46 -1.46 -1.46 -1.46 -1.46 -1.46 -1.46 -1.46 -1.46 -1.46 -1.46 -1.46 -1.46 -1.46 -1.46 -1.46 -1.46 -1.46 
-1.46 -1.46 -1.46 -1.46 -1.46 -1.46 -1.46 -1.46 -1.46 -1.46 -1.46 -1.46 -1.46 -1.46 -1.46 -1.46 -1.46 -1.46 -1.46 -1.46 -1.46 
-1.46 -1.46 -1.46 -1.46 -1.46 -1.46 -1.46 -1.46 -1.46 -1.46 -1.46 -1.46 -1.46 -1.46 -1.46 -1.46 -1.46 -1.46 -1.46 -1.46 -1.46 
-1.46 -1.46 -1.46 -1.46 -1.46 -1.46 -1.46 -1.46 -1.46 -1.46 -1.46 -1.46 -1.46 -1.46 -1.46 -1.46 -1.46 -1.46 -1.46 -1.46 -1.46 
-1.46 -1.46 -1.46 -1.46 -1.46 -1.46 -1.46 -1.46 -1.46 -1.46 -1.46 -1.46 -1.46 -1.46 -1.46 -1.46 -1.46 -1.46 -1.46 -1.46 -1.46 
-1.46 -1.46 -1.46 -1.46 -1.46 -1.46 -1.46 -1.46 -1.46 -1.46 -1.46 -1.46 -1.46 -1.46 -1.46 -1.46 -1.46 -1.46 -1.46 -1.46 -1.46 
</DataArray>
<DataArray Name="ne" NumberOfComponents="1" format="ascii" type="Float64">
1 1 1 1 1 1 1 1 1 1 1 1 1 1 1 1 1 1 1 1 1 
1 1 1 1 1 1 1 1 1 1 1 1 1 1 1 1 1 1 1 1 1 
1 1 1 1 1 1 1 1 1 1 1 1 1 1 1 1 1 1 1 1 1 
1 1 1 1 1 1 1 1 1 1 1 1 1 1 1 1 1 1 1 1 1 
1 1 1 1 1 1 1 1 1 1 1 1 1 1 1 1 1 1 1 1 1 
1 1 1 1 1 1 1 1 1 1 1 1 1 1 1 1 1 1 1 1 1 
1 1 1 1 1 1 1 1 1 1 1 1 1 1 1 1 1 1 1 1 1 
1 1 1 1 1 1 1 1 1 1 1 1 1 1 1 1 1 1 1 1 1 
1 1 1 1 1 1 1 1 1 1 1 1 1 1 1 1 1 1 1 1 1 
1 1 1 1 1 1 1 1 1 1 1 1 1 1 1 1 1 1 1 1 1 
1 1 1 1 1 1 1 1 1 1 1 1 1 1 1 1 1 1 1 1 1 
1 1 1 1 1 1 1 1 1 1 1 1 1 1 1 1 1 1 1 1 1 
1 1 1 1 1 1 1 1 1 1 1 1 1 1 1 1 1 1 1 1 1 
1 1 1 1 1 1 1 1 1 1 1 1 1 1 1 1 1 1 1 1 1 
1 1 1 1 1 1 1 1 1 1 1 1 1 1 1 1 1 1 1 1 1 
1 1 1 1 1 1 1 1 1 1 1 1 1 1 1 1 1 1 1 1 1 
1 1 1 1 1 1 1 1 1 1 1 1 1 1 1 1 1 1 1 1 1 
1 1 1 1 1 1 1 1 1 1 1 1 1 1 1 1 1 1 1 1 1 
1 1 1 1 1 1 1 1 1 1 1 1 1 1 1 1 1 1 1 1 1 
1 1 1 1 1 1 1 1 1 1 1 1 1 1 1 1 1 1 1 1 1 
1 1 1 1 1 1 1 1 1 1 1 1 1 1 1 1 1 1 1 1 1 
1 1 1 1 1 1 1 1 1 1 1 1 1 1 1 1 1 1 1 1 1 
1 1 1 1 1 1 1 1 1 1 1 1 1 1 1 1 1 1 1 1 1 
1 1 1 1 1 1 1 1 1 1 1 1 1 1 1 1 1 1 1 1 1 
1 1 1 1 1 1 1 1 1 1 1 1 1 1 1 1 1 1 1 1 1 
1 1 1 1 1 1 1 1 1 1 1 1 1 1 1 1 1 1 1 1 1 
1 1 1 1 1 1 1 1 1 1 1 1 1 1 1 1 1 1 1 1 1 
1 1 1 1 1 1 1 1 1 1 1 1 1 1 1 1 1 1 1 1 1 
1 1 1 1 1 1 1 1 1 1 1 1 1 1 1 1 1 1 1 1 1 
1 1 1 1 1 1 1 1 1 1 1 1 1 1 1 1 1 1 1 1 1 
1 1 1 1 1 1 1 1 1 1 1 1 1 1 1 1 1 1 1 1 1 
1 1 1 1 1 1 1 1 1 1 1 1 1 1 1 1 1 1 1 1 1 
1 1 1 1 1 1 1 1 1 1 1 1 1 1 1 1 1 1 1 1 1 
1 1 1 1 1 1 1 1 1 1 1 1 1 1 1 1 1 1 1 1 1 
1 1 1 1 1 1 1 1 1 1 1 1 1 1 1 1 1 1 1 1 1 
1 1 1 1 1 1 1 1 1 1 1 1 1 1 1 1 1 1 1 1 1 
1 1 1 1 1 1 1 1 1 1 1 1 1 1 1 1 1 1 1 1 1 
1 1 1 1 1 1 1 1 1 1 1 1 1 1 1 1 1 1 1 1 1 
1 1 1 1 1 1 1 1 1 1 1 1 1 1 1 1 1 1 1 1 1 
1 1 1 1 1 1 1 1 1 1 1 1 1 1 1 1 1 1 1 1 1 
1 1 1 1 1 1 1 1 1 1 1 1 1 1 1 1 1 1 1 1 1 
</DataArray>
</PointData>
</Piece>
</ImageData>
</VTKFile>
