<VTKFile type="ImageData">
<ImageData Origin="0 -10 0" Spacing="0.5 0.5 1" WholeExtent="0 20 0 40 0 0">
<Piece Extent="0 20 0 40 0 0">
<PointData>
<DataArray Name="f" NumberOfComponents="1" format="ascii" type="Float64">
1.51e-10 1.51e-10 1.51e-10 1.51e-10 1.51e-10 1.51e-10 1.51e-10 1.51e-10 1.51e-10 1.51e-10 1.51e-10 1.51e-10 1.51e-10 1.51e-10 1.51e-10 1.51e-10 1.51e-10 1.51e-10 1.51e-10 1.51e-10 1.51e-10 
1.77e-09 1.77e-09 1.77e-09 1.77e-09 1.77e-09 1.77e-09 1.77e-09 1.77e-09 1.77e-09 1.77e-09 1.77e-09 1.77e-09 1.77e-09 1.77e-09 1.77e-09 1.77e-09 1.77e-09 1.77e-09 1.77e-09 1.77e-09 1.77e-09 
1.76e-08 1.76e-08 1.76e-08 1.76e-08 1.76e-08 1.76e-08 1.76e-08 1.76e-08 1.76e-08 1.76e-08 1.76e-08 1.76e-08 1.76e-08 1.76e-08 1.76e-08 1.76e-08 1.76e-08 1.76e-08 1.76e-08 1.76e-08 1.76e-08 
1.491e-07 1.491e-07 1.491e-07 1.491e-07 1.491e-07 1.491e-07 1.491e-07 1.491e-07 1.491e-07 1.491e-07 1.491e-07 1.491e-07 1.491e-07 1.491e-07 1.491e-07 1.491e-07 1.491e-07 1.491e-07 1.491e-07 1.491e-07 1.491e-07 
1.082e-06 1.082e-06 1.082e-06 1.082e-06 1.082e-06 1.082e-06 1.082e-06 1.082e-06 1.082e-06 1.082e-06 1.082e-06 1.082e-06 1.082e-06 1.082e-06 1.082e-06 1.082e-06 1.082e-06 1.082e-06 1.082e-06 1.082e-06 1.082e-06 
6.752e-06 6.752e-06 6.752e-06 6.752e-06 6.752e-06 6.752e-06 6.752e-06 6.752e-06 6.752e-06 6.752e-06 6.752e-06 6.752e-06 6.752e-06 6.752e-06 6.752e-06 6.752e-06 6.752e-06 6.752e-06 6.752e-06 6.752e-06 6.752e-06 
3.635e-05 3.635e-05 3.635e-05 3.635e-05 3.635e-05 3.635e-05 3.635e-05 3.635e-05 3.635e-05 3.635e-05 3.635e-05 3.635e-05 3.635e-05 3.635e-05 3.635e-05 3.635e-05 3.635e-05 3.635e-05 3.635e-05 3.635e-05 3.635e-05 
0.0001693 0.0001693 0.0001693 0.0001693 0.0001693 0.0001693 0.0001693 0.0001693 0.0001693 0.0001693 0.0001693 0.0001693 0.0001693 0.0001693 0.0001693 0.0001693 0.0001693 0.0001693 0.0001693 0.0001693 0.0001693 
0.0006837 0.0006837 0.0006837 0.0006837 0.0006837 0.0006837 0.0006837 0.0006837 0.0006837 0.0006837 0.0006837 0.0006837 0.0006837 0.0006837 0.0006837 0.0006837 0.0006837 0.0006837 0.0006837 0.0006837 0.0006837 
0.002397 0.002397 0.002397 0.002397 0.002397 0.002397 0.002397 0.002397 0.002397 0.002397 0.002397 0.002397 0.002397 0.002397 0.002397 0.002397 0.002397 0.002397 0.002397 0.002397 0.002397 
0.007297 0.007297 0.007297 0.007297 0.007297 0.007297 0.007297 0.007297 0.007297 0.007297 0.007297 0.007297 0.007297 0.007297 0.007297 0.007297 0.007297 0.007297 0.007297 0.007297 0.007297 
0.0193 0.0193 0.0193 0.0193 0.0193 0.0193 0.0193 0.0193 0.0193 0.0193 0.0193 0.0193 0.0193 0.0193 0.0193 0.0193 0.0193 0.0193 0.0193 0.0193 0.0193 
0.04433 0.04433 0.04433 0.04433 0.04433 0.04433 0.04433 0.04433 0.04433 0.04433 0.04433 0.04433 0.04433 0.04433 0.04433 0.04433 0.04433 0.04433 0.04433 0.04433 0.04433 
0.08829 0.08829 0.08829 0.08829 0.08829 0.08829 0.08829 0.08829 0.08829 0.08829 0.08829 0.08829 0.08829 0.08829 0.08829 0.08829 0.08829 0.08829 0.08829 0.08829 0.08829 
0.1522 0.1522 0.1522 0.1522 0.1522 0.1522 0.1522 0.1522 0.1522 0.1522 0.1522 0.1522 0.1522 0.1522 0.1522 0.1522 0.1522 0.1522 0.1522 0.1522 0.1522 
0.2265 0.2265 0.2265 0.2265 0.2265 0.2265 0.2265 0.2265 0.2265 0.2265 0.2265 0.2265 0.2265 0.2265 0.2265 0.2265 0.2265 0.2265 0.2265 0.2265 0.2265 
0.2901 0.2901 0.2901 0.2901 0.2901 0.2901 0.2901 0.2901 0.2901 0.2901 0.2901 0.2901 0.2901 0.2901 0.2901 0.2901 0.2901 0.2901 0.2901 0.2901 0.2901 
0.3185 0.3185 0.3185 0.3185 0.3185 0.3185 0.3185 0.3185 0.3185 0.3185 0.3185 0.3185 0.3185 0.3185 0.3185 0.3185 0.3185 0.3185 0.3185 0.3185 0.3185 
0.2984 0.2984 0.2984 0.2984 0.2984 0.2984 0.2984 0.2984 0.2984 0.2984 0.2984 0.2984 0.2984 0.2984 0.2984 0.2984 0.2984 0.2984 0.2984 0.2984 0.2984 
0.2373 0.2373 0.2373 0.2373 0.2373 0.2373 0.2373 0.2373 0.2373 0.2373 0.2373 0.2373 0.2373 0.2373 0.2373 0.2373 0.2373 0.2373 0.2373 0.2373 0.2373 
0.1593 0.1593 0.1593 0.1593 0.1593 0.1593 0.1593 0.1593 0.1593 0.1593 0.1593 0.1593 0.1593 0.1593 0.1593 0.1593 0.1593 0.1593 0.1593 0.1593 0.1593 
0.08972 0.08972 0.08972 0.08972 0.08972 0.08972 0.08972 0.08972 0.08972 0.08972 0.08972 0.08972 0.08972 0.08972 0.08972 0.08972 0.08972 0.08972 0.08972 0.08972 0.08972 
0.04209 0.04209 0.04209 0.04209 0.04209 0.04209 0.04209 0.04209 0.04209 0.04209 0.04209 0.04209 0.04209 0.04209 0.04209 0.04209 0.04209 0.04209 0.04209 0.04209 0.04209 
0.01634 0.01634 0.01634 0.01634 0.01634 0.01634 0.01634 0.01634 0.01634 0.01634 0.01634 0.01634 0.01634 0.01634 0.01634 0.01634 0.01634 0.01634 0.01634 0.01634 0.01634 
0.005214 0.005214 0.005214 0.005214 0.005214 0.005214 0.005214 0.005214 0.005214 0.005214 0.005214 0.005214 0.005214 0.005214 0.005214 0.005214 0.005214 0.005214 0.005214 0.005214 0.005214 
0.001357 0.001357 0.001357 0.001357 0.001357 0.001357 0.001357 0.001357 0.001357 0.001357 0.001357 0.001357 0.001357 0.001357 0.001357 0.001357 0.001357 0.001357 0.001357 0.001357 0.001357 
0.0002865 0.0002865 0.0002865 0.0002865 0.0002865 0.0002865 0.0002865 0.0002865 0.0002865 0.0002865 0.0002865 0.0002865 0.0002865 0.0002865 0.0002865 0.0002865 0.0002865 0.0002865 0.0002865 0.0002865 0.0002865 
4.872e-05 4.872e-05 4.872e-05 4.872e-05 4.872e-05 4.872e-05 4.872e-05 4.872e-05 4.872e-05 4.872e-05 4.872e-05 4.872e-05 4.872e-05 4.872e-05 4.872e-05 4.872e-05 4.872e-05 4.872e-05 4.872e-05 4.872e-05 4.872e-05 
6.639e-06 6.639e-06 6.639e-06 6.639e-06 6.639e-06 6.639e-06 6.639e-06 6.639e-06 6.639e-06 6.639e-06 6.639e-06 6.639e-06 6.639e-06 6.639e-06 6.639e-06 6.639e-06 6.639e-06 6.639e-06 6.639e-06 6.639e-06 6.639e-06 
7.213e-07 7.213e-07 7.213e-07 7.213e-07 7.213e-07 7.213e-07 7.213e-07 7.213e-07 7.213e-07 7.213e-07 7.213e-07 7.213e-07 7.213e-07 7.213e-07 7.213e-07 7.213e-07 7.213e-07 7.213e-07 7.213e-07 7.213e-07 7.213e-07 
6.222e-08 6.222e-08 6.222e-08 6.222e-08 6.222e-08 6.222e-08 6.222e-08 6.222e-08 6.222e-08 6.222e-08 6.222e-08 6.222e-08 6.222e-08 6.222e-08 6.222e-08 6.222e-08 6.222e-08 6.222e-08 6.222e-08 6.222e-08 6.222e-08 
4.246e-09 4.246e-09 4.246e-09 4.246e-09 4.246e-09 4.246e-09 4.246e-09 4.246e-09 4.246e-09 4.246e-09 4.246e-09 4.246e-09 4.246e-09 4.246e-09 4.246e-09 4.246e-09 4.246e-09 4.246e-09 4.246e-09 4.246e-09 4.246e-09 
2.285e-10 2.285e-10 2.285e-10 2.285e-10 2.285e-10 2.285e-10 2.285e-10 2.285e-10 2.285e-10 2.285e-10 2.285e-10 2.285e-10 2.285e-10 2.285e-10 2.285e-10 2.285e-10 2.285e-10 2.285e-10 2.285e-10 2.285e-10 2.285e-10 
9.671e-12 9.671e-12 9.671e-12 9.671e-12 9.671e-12 9.671e-12 9.671e-12 9.671e-12 9.671e-12 9.671e-12 9.671e-12 9.671e-12 9.671e-12 9.671e-12 9.671e-12 9.671e-12 9.671e-12 9.671e-12 9.671e-12 9.671e-12 9.671e-12 
3.214e-13 3.214e-13 3.214e-13 3.214e-13 3.214e-13 3.214e-13 3.214e-13 3.214e-13 3.214e-13 3.214e-13 3.214e-13 3.214e-13 3.214e-13 3.214e-13 3.214e-13 3.214e-13 3.214e-13 3.214e-13 3.214e-13 3.214e-13 3.214e-13 
8.372e-15 8.372e-15 8.372e-15 8.372e-15 8.372e-15 8.372e-15 8.372e-15 8.372e-15 8.372e-15 8.372e-15 8.372e-15 8.372e-15 8.372e-15 8.372e-15 8.372e-15 8.372e-15 8.372e-15 8.372e-15 8.372e-15 8.372e-15 8.372e-15 
2.168e-16 2.168e-16 2.168e-16 2.168e-16 2.168e-16 2.168e-16 2.168e-16 2.168e-16 2.168e-16 2.168e-16 2.168e-16 2.168e-16 2.168e-16 2.168e-16 2.168e-16 2.168e-16 2.168e-16 2.168e-16 2.168e-16 2.168e-16 2.168e-16 
1.36e-15 1.36e-15 1.36e-15 1.36e-15 1.36e-15 1.36e-15 1.36e-15 1.36e-15 1.36e-15 1.36e-15 1.36e-15 1.36e-15 1.36e-15 1.36e-15 1.36e-15 1.36e-15 1.36e-15 1.36e-15 1.36e-15 1.36e-15 1.36e-15 
3.279e-14 3.279e-14 3.279e-14 3.279e-14 3.279e-14 3.279e-14 3.279e-14 3.279e-14 3.279e-14 3.279e-14 3.279e-14 3.279e-14 3.279e-14 3.279e-14 3.279e-14 3.279e-14 3.279e-14 3.279e-14 3.279e-14 3.279e-14 3.279e-14 
6.542e-13 6.542e-13 6.542e-13 6.542e-13 6.542e-13 6.542e-13 6.542e-13 6.542e-13 6.542e-13 6.542e-13 6.542e-13 6.542e-13 6.542e-13 6.542e-13 6.542e-13 6.542e-13 6.542e-13 6.542e-13 6.542e-13 6.542e-13 6.542e-13 
1.086e-11 1.086e-11 1.086e-11 1.086e-11 1.086e-11 1.086e-11 1.086e-11 1.086e-11 1.086e-11 1.086e-11 1.086e-11 1.086e-11 1.086e-11 1.086e-11 1.086e-11 1.086e-11 1.086e-11 1.086e-11 1.086e-11 1.086e-11 1.086e-11 
</DataArray>
<DataArray Name="E" NumberOfComponents="1" format="ascii" type="Float64">
1 1 1 1 1 1 1 1 1 1 1 1 1 1 1 1 1 1 1 1 1 
1 1 1 1 1 1 1 1 1 1 1 1 1 1 1 1 1 1 1 1 1 
1 1 1 1 1 1 1 1 1 1 1 1 1 1 1 1 1 1 1 1 1 
1 1 1 1 1 1 1 1 1 1 1 1 1 1 1 1 1 1 1 1 1 
1 1 1 1 1 1 1 1 1 1 1 1 1 1 1 1 1 1 1 1 1 
1 1 1 1 1 1 1 1 1 1 1 1 1 1 1 1 1 1 1 1 1 
1 1 1 1 1 1 1 1 1 1 1 1 1 1 1 1 1 1 1 1 1 
1 1 1 1 1 1 1 1 1 1 1 1 1 1 1 1 1 1 1 1 1 
1 1 1 1 1 1 1 1 1 1 1 1 1 1 1 1 1 1 1 1 1 
1 1 1 1 1 1 1 1 1 1 1 1 1 1 1 1 1 1 1 1 1 
1 1 1 1 1 1 1 1 1 1 1 1 1 1 1 1 1 1 1 1 1 
1 1 1 1 1 1 1 1 1 1 1 1 1 1 1 1 1 1 1 1 1 
1 1 1 1 1 1 1 1 1 1 1 1 1 1 1 1 1 1 1 1 1 
1 1 1 1 1 1 1 1 1 1 1 1 1 1 1 1 1 1 1 1 1 
1 1 1 1 1 1 1 1 1 1 1 1 1 1 1 1 1 1 1 1 1 
1 1 1 1 1 1 1 1 1 1 1 1 1 1 1 1 1 1 1 1 1 
1 1 1 1 1 1 1 1 1 1 1 1 1 1 1 1 1 1 1 1 1 
1 1 1 1 1 1 1 1 1 1 1 1 1 1 1 1 1 1 1 1 1 
1 1 1 1 1 1 1 1 1 1 1 1 1 1 1 1 1 1 1 1 1 
1 1 1 1 1 1 1 1 1 1 1 1 1 1 1 1 1 1 1 1 1 
1 1 1 1 1 1 1 1 1 1 1 1 1 1 1 1 1 1 1 1 1 
1 1 1 1 1 1 1 1 1 1 1 1 1 1 1 1 1 1 1 1 1 
1 1 1 1 1 1 1 1 1 1 1 1 1 1 1 1 1 1 1 1 1 
1 1 1 1 1 1 1 1 1 1 1 1 1 1 1 1 1 1 1 1 1 
1 1 1 1 1 1 1 1 1 1 1 1 1 1 1 1 1 1 1 1 1 
1 1 1 1 1 1 1 1 1 1 1 1 1 1 1 1 1 1 1 1 1 
1 1 1 1 1 1 1 1 1 1 1 1 1 1 1 1 1 1 1 1 1 
1 1 1 1 1 1 1 1 1 1 1 1 1 1 1 1 1 1 1 1 1 
1 1 1 1 1 1 1 1 1 1 1 1 1 1 1 1 1 1 1 1 1 
1 1 1 1 1 1 1 1 1 1 1 1 1 1 1 1 1 1 1 1 1 
1 1 1 1 1 1 1 1 1 1 1 1 1 1 1 1 1 1 1 1 1 
1 1 1 1 1 1 1 1 1 1 1 1 1 1 1 1 1 1 1 1 1 
1 1 1 1 1 1 1 1 1 1 1 1 1 1 1 1 1 1 1 1 1 
1 1 1 1 1 1 1 1 1 1 1 1 1 1 1 1 1 1 1 1 1 
1 1 1 1 1 1 1 1 1 1 1 1 1 1 1 1 1 1 1 1 1 
1 1 1 1 1 1 1 1 1 1 1 1 1 1 1 1 1 1 1 1 1 
1 1 1 1 1 1 1 1 1 1 1 1 1 1 1 1 1 1 1 1 1 
1 1 1 1 1 1 1 1 1 1 1 1 1 1 1 1 1 1 1 1 1 
1 1 1 1 1 1 1 1 1 1 1 1 1 1 1 1 1 1 1 1 1 
1 1 1 1 1 1 1 1 1 1 1 1 1 1 1 1 1 1 1 1 1 
1 1 1 1 1 1 1 1 1 1 1 1 1 1 1 1 1 1 1 1 1 
</DataArray>
<DataArray Name="ne" NumberOfComponents="1" format="ascii" type="Float64">
1 1 1 1 1 1 1 1 1 1 1 1 1 1 1 1 1 1 1 1 1 
1 1 1 1 1 1 1 1 1 1 1 1 1 1 1 1 1 1 1 1 1 
1 1 1 1 1 1 1 1 1 1 1 1 1 1 1 1 1 1 1 1 1 
1 1 1 1 1 1 1 1 1 1 1 1 1 1 1 1 1 1 1 1 1 
1 1 1 1 1 1 1 1 1 1 1 1 1 1 1 1 1 1 1 1 1 
1 1 1 1 1 1 1 1 1 1 1 1 1 1 1 1 1 1 1 1 1 
1 1 1 1 1 1 1 1 1 1 1 1 1 1 1 1 1 1 1 1 1 
1 1 1 1 1 1 1 1 1 1 1 1 1 1 1 1 1 1 1 1 1 
1 1 1 1 1 1 1 1 1 1 1 1 1 1 1 1 1 1 1 1 1 
1 1 1 1 1 1 1 1 1 1 1 1 1 1 1 1 1 1 1 1 1 
1 1 1 1 1 1 1 1 1 1 1 1 1 1 1 1 1 1 1 1 1 
1 1 1 1 1 1 1 1 1 1 1 1 1 1 1 1 1 1 1 1 1 
1 1 1 1 1 1 1 1 1 1 1 1 1 1 1 1 1 1 1 1 1 
1 1 1 1 1 1 1 1 1 1 1 1 1 1 1 1 1 1 1 1 1 
1 1 1 1 1 1 1 1 1 1 1 1 1 1 1 1 1 1 1 1 1 
1 1 1 1 1 1 1 1 1 1 1 1 1 1 1 1 1 1 1 1 1 
1 1 1 1 1 1 1 1 1 1 1 1 1 1 1 1 1 1 1 1 1 
1 1 1 1 1 1 1 1 1 1 1 1 1 1 1 1 1 1 1 1 1 
1 1 1 1 1 1 1 1 1 1 1 1 1 1 1 1 1 1 1 1 1 
1 1 1 1 1 1 1 1 1 1 1 1 1 1 1 1 1 1 1 1 1 
1 1 1 1 1 1 1 1 1 1 1 1 1 1 1 1 1 1 1 1 1 
1 1 1 1 1 1 1 1 1 1 1 1 1 1 1 1 1 1 1 1 1 
1 1 1 1 1 1 1 1 1 1 1 1 1 1 1 1 1 1 1 1 1 
1 1 1 1 1 1 1 1 1 1 1 1 1 1 1 1 1 1 1 1 1 
1 1 1 1 1 1 1 1 1 1 1 1 1 1 1 1 1 1 1 1 1 
1 1 1 1 1 1 1 1 1 1 1 1 1 1 1 1 1 1 1 1 1 
1 1 1 1 1 1 1 1 1 1 1 1 1 1 1 1 1 1 1 1 1 
1 1 1 1 1 1 1 1 1 1 1 1 1 1 1 1 1 1 1 1 1 
1 1 1 1 1 1 1 1 1 1 1 1 1 1 1 1 1 1 1 1 1 
1 1 1 1 1 1 1 1 1 1 1 1 1 1 1 1 1 1 1 1 1 
1 1 1 1 1 1 1 1 1 1 1 1 1 1 1 1 1 1 1 1 1 
1 1 1 1 1 1 1 1 1 1 1 1 1 1 1 1 1 1 1 1 1 
1 1 1 1 1 1 1 1 1 1 1 1 1 1 1 1 1 1 1 1 1 
1 1 1 1 1 1 1 1 1 1 1 1 1 1 1 1 1 1 1 1 1 
1 1 1 1 1 1 1 1 1 1 1 1 1 1 1 1 1 1 1 1 1 
1 1 1 1 1 1 1 1 1 1 1 1 1 1 1 1 1 1 1 1 1 
1 1 1 1 1 1 1 1 1 1 1 1 1 1 1 1 1 1 1 1 1 
1 1 1 1 1 1 1 1 1 1 1 1 1 1 1 1 1 1 1 1 1 
1 1 1 1 1 1 1 1 1 1 1 1 1 1 1 1 1 1 1 1 1 
1 1 1 1 1 1 1 1 1 1 1 1 1 1 1 1 1 1 1 1 1 
1 1 1 1 1 1 1 1 1 1 1 1 1 1 1 1 1 1 1 1 1 
</DataArray>
</PointData>
</Piece>
</ImageData>
</VTKFile>
