<VTKFile type="ImageData">
<ImageData Origin="0 -10 0" Spacing="0.5 0.5 1" WholeExtent="0 20 0 40 0 0">
<Piece Extent="0 20 0 40 0 0">
<PointData>
<DataArray Name="f" NumberOfComponents="1" format="ascii" type="Float64">
6.308e-05 6.308e-05 6.308e-05 6.308e-05 6.308e-05 6.308e-05 6.308e-05 6.308e-05 6.308e-05 6.308e-05 6.308e-05 6.308e-05 6.308e-05 6.308e-05 6.308e-05 6.308e-05 6.308e-05 6.308e-05 6.308e-05 6.308e-05 6.308e-05 
2.461e-05 2.461e-05 2.461e-05 2.461e-05 2.461e-05 2.461e-05 2.461e-05 2.461e-05 2.461e-05 2.461e-05 2.461e-05 2.461e-05 2.461e-05 2.461e-05 2.461e-05 2.461e-05 2.461e-05 2.461e-05 2.461e-05 2.461e-05 2.461e-05 
1.016e-05 1.016e-05 1.016e-05 1.016e-05 1.016e-05 1.016e-05 1.016e-05 1.016e-05 1.016e-05 1.016e-05 1.016e-05 1.016e-05 1.016e-05 1.016e-05 1.016e-05 1.016e-05 1.016e-05 1.016e-05 1.016e-05 1.016e-05 1.016e-05 
7.126e-06 7.126e-06 7.126e-06 7.126e-06 7.126e-06 7.126e-06 7.126e-06 7.126e-06 7.126e-06 7.126e-06 7.126e-06 7.126e-06 7.126e-06 7.126e-06 7.126e-06 7.126e-06 7.126e-06 7.126e-06 7.126e-06 7.126e-06 7.126e-06 
1.246e-05 1.246e-05 1.246e-05 1.246e-05 1.246e-05 1.246e-05 1.246e-05 1.246e-05 1.246e-05 1.246e-05 1.246e-05 1.246e-05 1.246e-05 1.246e-05 1.246e-05 1.246e-05 1.246e-05 1.246e-05 1.246e-05 1.246e-05 1.246e-05 
3.061e-05 3.061e-05 3.061e-05 3.061e-05 3.061e-05 3.061e-05 3.061e-05 3.061e-05 3.061e-05 3.061e-05 3.061e-05 3.061e-05 3.061e-05 3.061e-05 3.061e-05 3.061e-05 3.061e-05 3.061e-05 3.061e-05 3.061e-05 3.061e-05 
7.592e-05 7.592e-05 7.592e-05 7.592e-05 7.592e-05 7.592e-05 7.592e-05 7.592e-05 7.592e-05 7.592e-05 7.592e-05 7.592e-05 7.592e-05 7.592e-05 7.592e-05 7.592e-05 7.592e-05 7.592e-05 7.592e-05 7.592e-05 7.592e-05 
0.0001801 0.0001801 0.0001801 0.0001801 0.0001801 0.0001801 0.0001801 0.0001801 0.0001801 0.0001801 0.0001801 0.0001801 0.0001801 0.0001801 0.0001801 0.0001801 0.0001801 0.0001801 0.0001801 0.0001801 0.0001801 
0.0004059 0.0004059 0.0004059 0.0004059 0.0004059 0.0004059 0.0004059 0.0004059 0.0004059 0.0004059 0.0004059 0.0004059 0.0004059 0.0004059 0.0004059 0.0004059 0.0004059 0.0004059 0.0004059 0.0004059 0.0004059 
0.0008692 0.0008692 0.0008692 0.0008692 0.0008692 0.0008692 0.0008692 0.0008692 0.0008692 0.0008692 0.0008692 0.0008692 0.0008692 0.0008692 0.0008692 0.0008692 0.0008692 0.0008692 0.0008692 0.0008692 0.0008692 
0.001768 0.001768 0.001768 0.001768 0.001768 0.001768 0.001768 0.001768 0.001768 0.001768 0.001768 0.001768 0.001768 0.001768 0.001768 0.001768 0.001768 0.001768 0.001768 0.001768 0.001768 
0.003417 0.003417 0.003417 0.003417 0.003417 0.003417 0.003417 0.003417 0.003417 0.003417 0.003417 0.003417 0.003417 0.003417 0.003417 0.003417 0.003417 0.003417 0.003417 0.003417 0.003417 
0.006277 0.006277 0.006277 0.006277 0.006277 0.006277 0.006277 0.006277 0.006277 0.006277 0.006277 0.006277 0.006277 0.006277 0.006277 0.006277 0.006277 0.006277 0.006277 0.006277 0.006277 
0.01096 0.01096 0.01096 0.01096 0.01096 0.01096 0.01096 0.01096 0.01096 0.01096 0.01096 0.01096 0.01096 0.01096 0.01096 0.01096 0.01096 0.01096 0.01096 0.01096 0.01096 
0.01818 0.01818 0.01818 0.01818 0.01818 0.01818 0.01818 0.01818 0.01818 0.01818 0.01818 0.01818 0.01818 0.01818 0.01818 0.01818 0.01818 0.01818 0.01818 0.01818 0.01818 
0.02869 0.02869 0.02869 0.02869 0.02869 0.02869 0.02869 0.02869 0.02869 0.02869 0.02869 0.02869 0.02869 0.02869 0.02869 0.02869 0.02869 0.02869 0.02869 0.02869 0.02869 
0.04302 0.04302 0.04302 0.04302 0.04302 0.04302 0.04302 0.04302 0.04302 0.04302 0.04302 0.04302 0.04302 0.04302 0.04302 0.04302 0.04302 0.04302 0.04302 0.04302 0.04302 
0.06135 0.06135 0.06135 0.06135 0.06135 0.06135 0.06135 0.06135 0.06135 0.06135 0.06135 0.06135 0.06135 0.06135 0.06135 0.06135 0.06135 0.06135 0.06135 0.06135 0.06135 
0.08318 0.08318 0.08318 0.08318 0.08318 0.08318 0.08318 0.08318 0.08318 0.08318 0.08318 0.08318 0.08318 0.08318 0.08318 0.08318 0.08318 0.08318 0.08318 0.08318 0.08318 
0.1072 0.1072 0.1072 0.1072 0.1072 0.1072 0.1072 0.1072 0.1072 0.1072 0.1072 0.1072 0.1072 0.1072 0.1072 0.1072 0.1072 0.1072 0.1072 0.1072 0.1072 
0.1314 0.1314 0.1314 0.1314 0.1314 0.1314 0.1314 0.1314 0.1314 0.1314 0.1314 0.1314 0.1314 0.1314 0.1314 0.1314 0.1314 0.1314 0.1314 0.1314 0.1314 
0.1532 0.1532 0.1532 0.1532 0.1532 0.1532 0.1532 0.1532 0.1532 0.1532 0.1532 0.1532 0.1532 0.1532 0.1532 0.1532 0.1532 0.1532 0.1532 0.1532 0.1532 
0.1697 0.1697 0.1697 0.1697 0.1697 0.1697 0.1697 0.1697 0.1697 0.1697 0.1697 0.1697 0.1697 0.1697 0.1697 0.1697 0.1697 0.1697 0.1697 0.1697 0.1697 
0.1787 0.1787 0.1787 0.1787 0.1787 0.1787 0.1787 0.1787 0.1787 0.1787 0.1787 0.1787 0.1787 0.1787 0.1787 0.1787 0.1787 0.1787 0.1787 0.1787 0.1787 
0.1789 0.1789 0.1789 0.1789 0.1789 0.1789 0.1789 0.1789 0.1789 0.1789 0.1789 0.1789 0.1789 0.1789 0.1789 0.1789 0.1789 0.1789 0.1789 0.1789 0.1789 
0.1703 0.1703 0.1703 0.1703 0.1703 0.1703 0.1703 0.1703 0.1703 0.1703 0.1703 0.1703 0.1703 0.1703 0.1703 0.1703 0.1703 0.1703 0.1703 0.1703 0.1703 
0.154 0.154 0.154 0.154 0.154 0.154 0.154 0.154 0.154 0.154 0.154 0.154 0.154 0.154 0.154 0.154 0.154 0.154 0.154 0.154 0.154 
0.1323 0.1323 0.1323 0.1323 0.1323 0.1323 0.1323 0.1323 0.1323 0.1323 0.1323 0.1323 0.1323 0.1323 0.1323 0.1323 0.1323 0.1323 0.1323 0.1323 0.1323 
0.108 0.108 0.108 0.108 0.108 0.108 0.108 0.108 0.108 0.108 0.108 0.108 0.108 0.108 0.108 0.108 0.108 0.108 0.108 0.108 0.108 
0.08369 0.08369 0.08369 0.08369 0.08369 0.08369 0.08369 0.08369 0.08369 0.08369 0.08369 0.08369 0.08369 0.08369 0.08369 0.08369 0.08369 0.08369 0.08369 0.08369 0.08369 
0.0616 0.0616 0.0616 0.0616 0.0616 0.0616 0.0616 0.06161 0.06161 0.06161 0.06161 0.06161 0.06161 0.06161 0.0616 0.0616 0.0616 0.0616 0.0616 0.0616 0.0616 
0.04305 0.04305 0.04305 0.04305 0.04305 0.04305 0.04305 0.04305 0.04305 0.04305 0.04305 0.04305 0.04305 0.04305 0.04305 0.04305 0.04305 0.04305 0.04305 0.04305 0.04305 
0.02855 0.02855 0.02855 0.02854 0.02854 0.02854 0.02854 0.02854 0.02855 0.02855 0.02855 0.02855 0.02855 0.02855 0.02855 0.02855 0.02855 0.02855 0.02855 0.02855 0.02855 
0.01796 0.01796 0.01796 0.01796 0.01796 0.01796 0.01796 0.01796 0.01796 0.01796 0.01796 0.01796 0.01796 0.01796 0.01796 0.01796 0.01796 0.01796 0.01796 0.01796 0.01796 
0.01071 0.01071 0.01071 0.01071 0.01071 0.01071 0.01071 0.01071 0.01071 0.01071 0.01071 0.01071 0.01071 0.01071 0.01071 0.01071 0.01071 0.01071 0.01071 0.01071 0.01071 
0.00606 0.00606 0.00606 0.00606 0.00606 0.00606 0.00606 0.00606 0.00606 0.00606 0.00606 0.00606 0.00606 0.00606 0.00606 0.00606 0.00606 0.00606 0.00606 0.00606 0.00606 
0.003248 0.003248 0.003248 0.003248 0.003248 0.003248 0.003248 0.003248 0.003248 0.003248 0.003248 0.003248 0.003248 0.003248 0.003248 0.003248 0.003248 0.003248 0.003248 0.003248 0.003248 
0.001649 0.001649 0.001649 0.001649 0.001649 0.001649 0.001649 0.001649 0.001649 0.001649 0.001649 0.001649 0.001649 0.001649 0.001649 0.001649 0.001649 0.001649 0.001649 0.001649 0.001649 
0.0007923 0.0007923 0.0007923 0.0007923 0.0007923 0.0007923 0.0007923 0.0007923 0.0007923 0.0007923 0.0007923 0.0007923 0.0007923 0.0007923 0.0007923 0.0007923 0.0007923 0.0007923 0.0007923 0.0007923 0.0007923 
0.0003603 0.0003603 0.0003603 0.0003603 0.0003603 0.0003603 0.0003603 0.0003603 0.0003603 0.0003603 0.0003603 0.0003603 0.0003603 0.0003603 0.0003603 0.0003603 0.0003603 0.0003603 0.0003603 0.0003603 0.0003603 
0.0001549 0.0001549 0.0001549 0.0001549 0.0001549 0.0001549 0.0001549 0.0001549 0.0001549 0.0001549 0.0001549 0.0001549 0.0001549 0.0001549 0.0001549 0.0001549 0.0001549 0.0001549 0.0001549 0.0001549 0.0001549 
</DataArray>
<DataArray Name="E" NumberOfComponents="1" format="ascii" type="Float64">
-1.475 -1.475 -1.475 -1.475 -1.475 -1.475 -1.475 -1.475 -1.475 -1.475 -1.475 -1.475 -1.475 -1.475 -1.475 -1.475 -1.475 -1.475 -1.475 -1.475 -1.475 
-1.475 -1.475 -1.475 -1.475 -1.475 -1.475 -1.475 -1.475 -1.475 -1.475 -1.475 -1.475 -1.475 -1.475 -1.475 -1.475 -1.475 -1.475 -1.475 -1.475 -1.475 
-1.475 -1.475 -1.475 -1.475 -1.475 -1.475 -1.475 -1.475 -1.475 -1.475 -1.475 -1.475 -1.475 -1.475 -1.475 -1.475 -1.475 -1.475 -1.475 -1.475 -1.475 
-1.475 -1.475 -1.475 -1.475 -1.475 -1.475 -1.475 -1.475 -1.475 -1.475 -1.475 -1.475 -1.475 -1.475 -1.475 -1.475 -1.475 -1.475 -1.475 -1.475 -1.475 
-1.475 -1.475 -1.475 -1.475 -1.475 -1.475 -1.475 -1.475 -1.475 -1.475 -1.475 -1.475 -1.475 -1.475 -1.475 -1.475 -1.475 -1.475 -1.475 -1.475 -1.475 
-1.475 -1.475 -1.475 -1.475 -1.475 -1.475 -1.475 -1.475 -1.475 -1.475 -1.475 -1.475 -1.475 -1.475 -1.475 -1.475 -1.475 -1.475 -1.475 -1.475 -1.475 
-1.475 -1.475 -1.475 -1.475 -1.475 -1.475 -1.475 -1.475 -1.475 -1.475 -1.475 -1.475 -1.475 -1.475 -1.475 -1.475 -1.475 -1.475 -1.475 -1.475 -1.475 
-1.475 -1.475 -1.475 -1.475 -1.475 -1.475 -1.475 -1.475 -1.475 -1.475 -1.475 -1.475 -1.475 -1.475 -1.475 -1.475 -1.475 -1.475 -1.475 -1.475 -1.475 
-1.475 -1.475 -1.475 -1.475 -1.475 -1.475 -1.475 -1.475 -1.475 -1.475 -1.475 -1.475 -1.475 -1.475 -1.475 -1.475 -1.475 -1.475 -1.475 -1.475 -1.475 
-1.475 -1.475 -1.475 -1.475 -1.475 -1.475 -1.475 -1.475 -1.475 -1.475 -1.475 -1.475 -1.475 -1.475 -1.475 -1.475 -1.475 -1.475 -1.475 -1.475 -1.475 
-1.475 -1.475 -1.475 -1.475 -1.475 -1.475 -1.475 -1.475 -1.475 -1.475 -1.475 -1.475 -1.475 -1.475 -1.475 -1.475 -1.475 -1.475 -1.475 -1.475 -1.475 
-1.475 -1.475 -1.475 -1.475 -1.475 -1.475 -1.475 -1.475 -1.475 -1.475 -1.475 -1.475 -1.475 -1.475 -1.475 -1.475 -1.475 -1.475 -1.475 -1.475 -1.475 
-1.475 -1.475 -1.475 -1.475 -1.475 -1.475 -1.475 -1.475 -1.475 -1.475 -1.475 -1.475 -1.475 -1.475 -1.475 -1.475 -1.475 -1.475 -1.475 -1.475 -1.475 
-1.475 -1.475 -1.475 -1.475 -1.475 -1.475 -1.475 -1.475 -1.475 -1.475 -1.475 -1.475 -1.475 -1.475 -1.475 -1.475 -1.475 -1.475 -1.475 -1.475 -1.475 
-1.475 -1.475 -1.475 -1.475 -1.475 -1.475 -1.475 -1.475 -1.475 -1.475 -1.475 -1.475 -1.475 -1.475 -1.475 -1.475 -1.475 -1.475 -1.475 -1.475 -1.475 
-1.475 -1.475 -1.475 -1.475 -1.475 -1.475 -1.475 -1.475 -1.475 -1.475 -1.475 -1.475 -1.475 -1.475 -1.475 -1.475 -1.475 -1.475 -1.475 -1.475 -1.475 
-1.475 -1.475 -1.475 -1.475 -1.475 -1.475 -1.475 -1.475 -1.475 -1.475 -1.475 -1.475 -1.475 -1.475 -1.475 -1.475 -1.475 -1.475 -1.475 -1.475 -1.475 
-1.475 -1.475 -1.475 -1.475 -1.475 -1.475 -1.475 -1.475 -1.475 -1.475 -1.475 -1.475 -1.475 -1.475 -1.475 -1.475 -1.475 -1.475 -1.475 -1.475 -1.475 
-1.475 -1.475 -1.475 -1.475 -1.475 -1.475 -1.475 -1.475 -1.475 -1.475 -1.475 -1.475 -1.475 -1.475 -1.475 -1.475 -1.475 -1.475 -1.475 -1.475 -1.475 
-1.475 -1.475 -1.475 -1.475 -1.475 -1.475 -1.475 -1.475 -1.475 -1.475 -1.475 -1.475 -1.475 -1.475 -1.475 -1.475 -1.475 -1.475 -1.475 -1.475 -1.475 
-1.475 -1.475 -1.475 -1.475 -1.475 -1.475 -1.475 -1.475 -1.475 -1.475 -1.475 -1.475 -1.475 -1.475 -1.475 -1.475 -1.475 -1.475 -1.475 -1.475 -1.475 
-1.475 -1.475 -1.475 -1.475 -1.475 -1.475 -1.475 -1.475 -1.475 -1.475 -1.475 -1.475 -1.475 -1.475 -1.475 -1.475 -1.475 -1.475 -1.475 -1.475 -1.475 
-1.475 -1.475 -1.475 -1.475 -1.475 -1.475 -1.475 -1.475 -1.475 -1.475 -1.475 -1.475 -1.475 -1.475 -1.475 -1.475 -1.475 -1.475 -1.475 -1.475 -1.475 
-1.475 -1.475 -1.475 -1.475 -1.475 -1.475 -1.475 -1.475 -1.475 -1.475 -1.475 -1.475 -1.475 -1.475 -1.475 -1.475 -1.475 -1.475 -1.475 -1.475 -1.475 
-1.475 -1.475 -1.475 -1.475 -1.475 -1.475 -1.475 -1.475 -1.475 -1.475 -1.475 -1.475 -1.475 -1.475 -1.475 -1.475 -1.475 -1.475 -1.475 -1.475 -1.475 
-1.475 -1.475 -1.475 -1.475 -1.475 -1.475 -1.475 -1.475 -1.475 -1.475 -1.475 -1.475 -1.475 -1.475 -1.475 -1.475 -1.475 -1.475 -1.475 -1.475 -1.475 
-1.475 -1.475 -1.475 -1.475 -1.475 -1.475 -1.475 -1.475 -1.475 -1.475 -1.475 -1.475 -1.475 -1.475 -1.475 -1.475 -1.475 -1.475 -1.475 -1.475 -1.475 
-1.475 -1.475 -1.475 -1.475 -1.475 -1.475 -1.475 -1.475 -1.475 -1.475 -1.475 -1.475 -1.475 -1.475 -1.475 -1.475 -1.475 -1.475 -1.475 -1.475 -1.475 
-1.475 -1.475 -1.475 -1.475 -1.475 -1.475 -1.475 -1.475 -1.475 -1.475 -1.475 -1.475 -1.475 -1.475 -1.475 -1.475 -1.475 -1.475 -1.475 -1.475 -1.475 
-1.475 -1.475 -1.475 -1.475 -1.475 -1.475 -1.475 -1.475 -1.475 -1.475 -1.475 -1.475 -1.475 -1.475 -1.475 -1.475 -1.475 -1.475 -1.475 -1.475 -1.475 
-1.475 -1.475 -1.475 -1.475 -1.475 -1.475 -1.475 -1.475 -1.475 -1.475 -1.475 -1.475 -1.475 -1.475 -1.475 -1.475 -1.475 -1.475 -1.475 -1.475 -1.475 
-1.475 -1.475 -1.475 -1.475 -1.475 -1.475 -1.475 -1.475 -1.475 -1.475 -1.475 -1.475 -1.475 -1.475 -1.475 -1.475 -1.475 -1.475 -1.475 -1.475 -1.475 
-1.475 -1.475 -1.475 -1.475 -1.475 -1.475 -1.475 -1.475 -1.475 -1.475 -1.475 -1.475 -1.475 -1.475 -1.475 -1.475 -1.475 -1.475 -1.475 -1.475 -1.475 
-1.475 -1.475 -1.475 -1.475 -1.475 -1.475 -1.475 -1.475 -1.475 -1.475 -1.475 -1.475 -1.475 -1.475 -1.475 -1.475 -1.475 -1.475 -1.475 -1.475 -1.475 
-1.475 -1.475 -1.475 -1.475 -1.475 -1.475 -1.475 -1.475 -1.475 -1.475 -1.475 -1.475 -1.475 -1.475 -1.475 -1.475 -1.475 -1.475 -1.475 -1.475 -1.475 
-1.475 -1.475 -1.475 -1.475 -1.475 -1.475 -1.475 -1.475 -1.475 -1.475 -1.475 -1.475 -1.475 -1.475 -1.475 -1.475 -1.475 -1.475 -1.475 -1.475 -1.475 
-1.475 -1.475 -1.475 -1.475 -1.475 -1.475 -1.475 -1.475 -1.475 -1.475 -1.475 -1.475 -1.475 -1.475 -1.475 -1.475 -1.475 -1.475 -1.475 -1.475 -1.475 
-1.475 -1.475 -1.475 -1.475 -1.475 -1.475 -1.475 -1.475 -1.475 -1.475 -1.475 -1.475 -1.475 -1.475 -1.475 -1.475 -1.475 -1.475 -1.475 -1.475 -1.475 
-1.475 -1.475 -1.475 -1.475 -1.475 -1.475 -1.475 -1.475 -1.475 -1.475 -1.475 -1.475 -1.475 -1.475 -1.475 -1.475 -1.475 -1.475 -1.475 -1.475 -1.475 
-1.475 -1.475 -1.475 -1.475 -1.475 -1.475 -1.475 -1.475 -1.475 -1.475 -1.475 -1.475 -1.475 -1.475 -1.475 -1.475 -1.475 -1.475 -1.475 -1.475 -1.475 
-1.475 -1.475 -1.475 -1.475 -1.475 -1.475 -1.475 -1.475 -1.475 -1.475 -1.475 -1.475 -1.475 -1.475 -1.475 -1.475 -1.475 -1.475 -1.475 -1.475 -1.475 
</DataArray>
<DataArray Name="ne" NumberOfComponents="1" format="ascii" type="Float64">
1 1 1 1 1 1 1 1 1 1 1 1 1 1 1 1 1 1 1 1 1 
1 1 1 1 1 1 1 1 1 1 1 1 1 1 1 1 1 1 1 1 1 
1 1 1 1 1 1 1 1 1 1 1 1 1 1 1 1 1 1 1 1 1 
1 1 1 1 1 1 1 1 1 1 1 1 1 1 1 1 1 1 1 1 1 
1 1 1 1 1 1 1 1 1 1 1 1 1 1 1 1 1 1 1 1 1 
1 1 1 1 1 1 1 1 1 1 1 1 1 1 1 1 1 1 1 1 1 
1 1 1 1 1 1 1 1 1 1 1 1 1 1 1 1 1 1 1 1 1 
1 1 1 1 1 1 1 1 1 1 1 1 1 1 1 1 1 1 1 1 1 
1 1 1 1 1 1 1 1 1 1 1 1 1 1 1 1 1 1 1 1 1 
1 1 1 1 1 1 1 1 1 1 1 1 1 1 1 1 1 1 1 1 1 
1 1 1 1 1 1 1 1 1 1 1 1 1 1 1 1 1 1 1 1 1 
1 1 1 1 1 1 1 1 1 1 1 1 1 1 1 1 1 1 1 1 1 
1 1 1 1 1 1 1 1 1 1 1 1 1 1 1 1 1 1 1 1 1 
1 1 1 1 1 1 1 1 1 1 1 1 1 1 1 1 1 1 1 1 1 
1 1 1 1 1 1 1 1 1 1 1 1 1 1 1 1 1 1 1 1 1 
1 1 1 1 1 1 1 1 1 1 1 1 1 1 1 1 1 1 1 1 1 
1 1 1 1 1 1 1 1 1 1 1 1 1 1 1 1 1 1 1 1 1 
1 1 1 1 1 1 1 1 1 1 1 1 1 1 1 1 1 1 1 1 1 
1 1 1 1 1 1 1 1 1 1 1 1 1 1 1 1 1 1 1 1 1 
1 1 1 1 1 1 1 1 1 1 1 1 1 1 1 1 1 1 1 1 1 
1 1 1 1 1 1 1 1 1 1 1 1 1 1 1 1 1 1 1 1 1 
1 1 1 1 1 1 1 1 1 1 1 1 1 1 1 1 1 1 1 1 1 
1 1 1 1 1 1 1 1 1 1 1 1 1 1 1 1 1 1 1 1 1 
1 1 1 1 1 1 1 1 1 1 1 1 1 1 1 1 1 1 1 1 1 
1 1 1 1 1 1 1 1 1 1 1 1 1 1 1 1 1 1 1 1 1 
1 1 1 1 1 1 1 1 1 1 1 1 1 1 1 1 1 1 1 1 1 
1 1 1 1 1 1 1 1 1 1 1 1 1 1 1 1 1 1 1 1 1 
1 1 1 1 1 1 1 1 1 1 1 1 1 1 1 1 1 1 1 1 1 
1 1 1 1 1 1 1 1 1 1 1 1 1 1 1 1 1 1 1 1 1 
1 1 1 1 1 1 1 1 1 1 1 1 1 1 1 1 1 1 1 1 1 
1 1 1 1 1 1 1 1 1 1 1 1 1 1 1 1 1 1 1 1 1 
1 1 1 1 1 1 1 1 1 1 1 1 1 1 1 1 1 1 1 1 1 
1 1 1 1 1 1 1 1 1 1 1 1 1 1 1 1 1 1 1 1 1 
1 1 1 1 1 1 1 1 1 1 1 1 1 1 1 1 1 1 1 1 1 
1 1 1 1 1 1 1 1 1 1 1 1 1 1 1 1 1 1 1 1 1 
1 1 1 1 1 1 1 1 1 1 1 1 1 1 1 1 1 1 1 1 1 
1 1 1 1 1 1 1 1 1 1 1 1 1 1 1 1 1 1 1 1 1 
1 1 1 1 1 1 1 1 1 1 1 1 1 1 1 1 1 1 1 1 1 
1 1 1 1 1 1 1 1 1 1 1 1 1 1 1 1 1 1 1 1 1 
1 1 1 1 1 1 1 1 1 1 1 1 1 1 1 1 1 1 1 1 1 
1 1 1 1 1 1 1 1 1 1 1 1 1 1 1 1 1 1 1 1 1 
</DataArray>
</PointData>
</Piece>
</ImageData>
</VTKFile>
