<VTKFile type="ImageData">
<ImageData Origin="0 -10 0" Spacing="0.5 0.5 1" WholeExtent="0 20 0 40 0 0">
<Piece Extent="0 20 0 40 0 0">
<PointData>
<DataArray Name="f" NumberOfComponents="1" format="ascii" type="Float64">
0.001477 0.001477 0.001477 0.001477 0.001477 0.001477 0.001477 0.001477 0.001477 0.001477 0.001477 0.001477 0.001477 0.001477 0.001477 0.001477 0.001477 0.001477 0.001477 0.001477 0.001477 
0.003402 0.003402 0.003402 0.003402 0.003402 0.003402 0.003402 0.003402 0.003402 0.003402 0.003402 0.003402 0.003402 0.003402 0.003402 0.003402 0.003402 0.003402 0.003402 0.003402 0.003402 
0.007295 0.007295 0.007295 0.007295 0.007295 0.007295 0.007295 0.007295 0.007295 0.007295 0.007295 0.007295 0.007295 0.007295 0.007295 0.007295 0.007295 0.007295 0.007295 0.007295 0.007295 
0.01455 0.01455 0.01455 0.01455 0.01455 0.01455 0.01455 0.01455 0.01455 0.01455 0.01455 0.01455 0.01455 0.01455 0.01455 0.01455 0.01455 0.01455 0.01455 0.01455 0.01455 
0.02695 0.02695 0.02695 0.02695 0.02695 0.02695 0.02695 0.02695 0.02695 0.02695 0.02695 0.02695 0.02695 0.02695 0.02695 0.02695 0.02695 0.02695 0.02695 0.02695 0.02695 
0.04634 0.04634 0.04634 0.04634 0.04634 0.04634 0.04634 0.04634 0.04634 0.04634 0.04634 0.04634 0.04634 0.04634 0.04634 0.04634 0.04634 0.04634 0.04634 0.04634 0.04634 
0.0739 0.0739 0.0739 0.0739 0.0739 0.0739 0.0739 0.0739 0.0739 0.0739 0.0739 0.0739 0.0739 0.0739 0.0739 0.0739 0.0739 0.0739 0.0739 0.0739 0.0739 
0.1091 0.1091 0.1091 0.1091 0.1091 0.1091 0.1091 0.1091 0.1091 0.1091 0.1091 0.1091 0.1091 0.1091 0.1091 0.1091 0.1091 0.1091 0.1091 0.1091 0.1091 
0.1491 0.1491 0.1491 0.1491 0.1491 0.1491 0.1491 0.1491 0.1491 0.1491 0.1491 0.1491 0.1491 0.1491 0.1491 0.1491 0.1491 0.1491 0.1491 0.1491 0.1491 
0.188 0.188 0.188 0.188 0.188 0.188 0.188 0.188 0.188 0.188 0.188 0.188 0.188 0.188 0.188 0.188 0.188 0.188 0.188 0.188 0.188 
0.2185 0.2185 0.2185 0.2185 0.2185 0.2185 0.2185 0.2185 0.2185 0.2185 0.2185 0.2185 0.2185 0.2185 0.2185 0.2185 0.2185 0.2185 0.2185 0.2185 0.2185 
0.2337 0.2337 0.2337 0.2337 0.2337 0.2337 0.2337 0.2337 0.2337 0.2337 0.2337 0.2337 0.2337 0.2337 0.2337 0.2337 0.2337 0.2337 0.2337 0.2337 0.2337 
0.2295 0.2295 0.2295 0.2295 0.2295 0.2295 0.2295 0.2295 0.2295 0.2295 0.2295 0.2295 0.2295 0.2295 0.2295 0.2295 0.2295 0.2295 0.2295 0.2295 0.2295 
0.2064 0.2064 0.2064 0.2064 0.2064 0.2064 0.2064 0.2064 0.2064 0.2064 0.2064 0.2064 0.2064 0.2064 0.2064 0.2064 0.2064 0.2064 0.2064 0.2064 0.2064 
0.1696 0.1696 0.1696 0.1696 0.1696 0.1696 0.1696 0.1696 0.1696 0.1696 0.1696 0.1696 0.1696 0.1696 0.1696 0.1696 0.1696 0.1696 0.1696 0.1696 0.1696 
0.1269 0.1269 0.1269 0.1269 0.1269 0.1269 0.1269 0.1269 0.1269 0.1269 0.1269 0.1269 0.1269 0.1269 0.1269 0.1269 0.1269 0.1269 0.1269 0.1269 0.1269 
0.08633 0.08632 0.08633 0.08633 0.08633 0.08633 0.08633 0.08633 0.08633 0.08633 0.08633 0.08633 0.08633 0.08633 0.08633 0.08633 0.08633 0.08633 0.08633 0.08633 0.08633 
0.05316 0.05316 0.05316 0.05316 0.05316 0.05316 0.05316 0.05317 0.05317 0.05317 0.05317 0.05317 0.05317 0.05317 0.05317 0.05317 0.05317 0.05317 0.05317 0.05317 0.05316 
0.02955 0.02955 0.02955 0.02955 0.02955 0.02955 0.02955 0.02955 0.02955 0.02955 0.02955 0.02955 0.02955 0.02955 0.02955 0.02955 0.02955 0.02955 0.02955 0.02955 0.02955 
0.01477 0.01476 0.01476 0.01476 0.01476 0.01476 0.01477 0.01477 0.01477 0.01477 0.01477 0.01477 0.01477 0.01477 0.01477 0.01477 0.01477 0.01477 0.01477 0.01477 0.01477 
0.006609 0.006608 0.006608 0.006608 0.006608 0.006608 0.006609 0.006609 0.006609 0.006609 0.006609 0.006609 0.006609 0.006609 0.006609 0.006609 0.006609 0.00661 0.00661 0.00661 0.006609 
0.002639 0.002638 0.002638 0.002638 0.002638 0.002638 0.002638 0.002639 0.002639 0.002639 0.002639 0.002639 0.002639 0.002639 0.002639 0.002639 0.002639 0.002639 0.002639 0.002639 0.002639 
0.0009358 0.0009357 0.0009356 0.0009356 0.0009357 0.0009357 0.0009357 0.0009357 0.0009357 0.0009357 0.0009357 0.0009358 0.0009358 0.0009358 0.0009358 0.0009358 0.0009359 0.0009359 0.0009359 0.0009359 0.0009358 
0.0002935 0.0002935 0.0002934 0.0002934 0.0002934 0.0002934 0.0002934 0.0002934 0.0002935 0.0002935 0.0002935 0.0002935 0.0002935 0.0002935 0.0002935 0.0002935 0.0002935 0.0002935 0.0002935 0.0002935 0.0002935 
8.104e-05 8.103e-05 8.102e-05 8.102e-05 8.102e-05 8.102e-05 8.102e-05 8.102e-05 8.102e-05 8.102e-05 8.102e-05 8.103e-05 8.103e-05 8.103e-05 8.103e-05 8.103e-05 8.104e-05 8.104e-05 8.104e-05 8.104e-05 8.104e-05 
1.961e-05 1.961e-05 1.96e-05 1.96e-05 1.96e-05 1.96e-05 1.96e-05 1.96e-05 1.96e-05 1.96e-05 1.96e-05 1.96e-05 1.96e-05 1.96e-05 1.961e-05 1.961e-05 1.961e-05 1.961e-05 1.961e-05 1.961e-05 1.961e-05 
4.138e-06 4.138e-06 4.137e-06 4.137e-06 4.137e-06 4.137e-06 4.137e-06 4.137e-06 4.137e-06 4.137e-06 4.137e-06 4.137e-06 4.137e-06 4.137e-06 4.138e-06 4.138e-06 4.138e-06 4.138e-06 4.138e-06 4.138e-06 4.138e-06 
7.583e-07 7.582e-07 7.582e-07 7.581e-07 7.58e-07 7.58e-07 7.58e-07 7.58e-07 7.58e-07 7.581e-07 7.581e-07 7.581e-07 7.581e-07 7.581e-07 7.581e-07 7.582e-07 7.582e-07 7.582e-07 7.583e-07 7.583e-07 7.583e-07 
1.201e-07 1.201e-07 1.201e-07 1.201e-07 1.201e-07 1.201e-07 1.201e-07 1.201e-07 1.201e-07 1.201e-07 1.201e-07 1.201e-07 1.201e-07 1.201e-07 1.201e-07 1.201e-07 1.201e-07 1.201e-07 1.201e-07 1.201e-07 1.201e-07 
1.662e-08 1.662e-08 1.662e-08 1.662e-08 1.662e-08 1.662e-08 1.661e-08 1.661e-08 1.662e-08 1.662e-08 1.662e-08 1.662e-08 1.662e-08 1.662e-08 1.662e-08 1.662e-08 1.662e-08 1.662e-08 1.662e-08 1.662e-08 1.662e-08 
3.328e-09 3.328e-09 3.328e-09 3.327e-09 3.327e-09 3.327e-09 3.327e-09 3.327e-09 3.327e-09 3.327e-09 3.327e-09 3.327e-09 3.327e-09 3.327e-09 3.327e-09 3.327e-09 3.327e-09 3.328e-09 3.328e-09 3.328e-09 3.328e-09 
7.327e-09 7.326e-09 7.326e-09 7.326e-09 7.326e-09 7.326e-09 7.326e-09 7.327e-09 7.327e-09 7.327e-09 7.327e-09 7.327e-09 7.327e-09 7.327e-09 7.327e-09 7.327e-09 7.327e-09 7.327e-09 7.327e-09 7.327e-09 7.327e-09 
3.34e-08 3.34e-08 3.34e-08 3.34e-08 3.34e-08 3.34e-08 3.34e-08 3.34e-08 3.34e-08 3.34e-08 3.341e-08 3.341e-08 3.341e-08 3.341e-08 3.341e-08 3.341e-08 3.341e-08 3.341e-08 3.341e-08 3.34e-08 3.34e-08 
1.454e-07 1.454e-07 1.454e-07 1.454e-07 1.454e-07 1.454e-07 1.454e-07 1.454e-07 1.454e-07 1.454e-07 1.454e-07 1.454e-07 1.454e-07 1.454e-07 1.454e-07 1.454e-07 1.454e-07 1.454e-07 1.454e-07 1.454e-07 1.454e-07 
5.897e-07 5.897e-07 5.897e-07 5.897e-07 5.897e-07 5.897e-07 5.897e-07 5.897e-07 5.897e-07 5.897e-07 5.897e-07 5.897e-07 5.897e-07 5.897e-07 5.897e-07 5.897e-07 5.897e-07 5.897e-07 5.897e-07 5.897e-07 5.897e-07 
2.228e-06 2.228e-06 2.228e-06 2.228e-06 2.228e-06 2.228e-06 2.228e-06 2.228e-06 2.228e-06 2.228e-06 2.228e-06 2.228e-06 2.228e-06 2.228e-06 2.228e-06 2.228e-06 2.228e-06 2.228e-06 2.228e-06 2.228e-06 2.228e-06 
7.846e-06 7.846e-06 7.846e-06 7.846e-06 7.846e-06 7.846e-06 7.846e-06 7.846e-06 7.846e-06 7.846e-06 7.846e-06 7.846e-06 7.846e-06 7.847e-06 7.846e-06 7.847e-06 7.846e-06 7.847e-06 7.846e-06 7.846e-06 7.846e-06 
2.575e-05 2.575e-05 2.575e-05 2.575e-05 2.575e-05 2.575e-05 2.575e-05 2.575e-05 2.575e-05 2.575e-05 2.575e-05 2.575e-05 2.575e-05 2.575e-05 2.575e-05 2.575e-05 2.575e-05 2.575e-05 2.575e-05 2.575e-05 2.575e-05 
7.878e-05 7.878e-05 7.878e-05 7.878e-05 7.878e-05 7.878e-05 7.878e-05 7.878e-05 7.878e-05 7.878e-05 7.878e-05 7.878e-05 7.878e-05 7.878e-05 7.878e-05 7.878e-05 7.878e-05 7.878e-05 7.878e-05 7.878e-05 7.878e-05 
0.0002246 0.0002246 0.0002246 0.0002246 0.0002246 0.0002246 0.0002246 0.0002246 0.0002246 0.0002246 0.0002246 0.0002246 0.0002246 0.0002246 0.0002246 0.0002246 0.0002246 0.0002246 0.0002246 0.0002246 0.0002246 
0.0005967 0.0005967 0.0005967 0.0005967 0.0005967 0.0005967 0.0005967 0.0005967 0.0005967 0.0005967 0.0005967 0.0005967 0.0005967 0.0005967 0.0005967 0.0005967 0.0005967 0.0005967 0.0005967 0.0005967 0.0005967 
</DataArray>
<DataArray Name="E" NumberOfComponents="1" format="ascii" type="Float64">
-0.7108 -0.7108 -0.7108 -0.7108 -0.7108 -0.7108 -0.7108 -0.7108 -0.7108 -0.7108 -0.7108 -0.7108 -0.7108 -0.7108 -0.7108 -0.7109 -0.7109 -0.7109 -0.7109 -0.7109 -0.7109 
-0.7108 -0.7108 -0.7108 -0.7108 -0.7108 -0.7108 -0.7108 -0.7108 -0.7108 -0.7108 -0.7108 -0.7108 -0.7108 -0.7108 -0.7108 -0.7109 -0.7109 -0.7109 -0.7109 -0.7109 -0.7109 
-0.7108 -0.7108 -0.7108 -0.7108 -0.7108 -0.7108 -0.7108 -0.7108 -0.7108 -0.7108 -0.7108 -0.7108 -0.7108 -0.7108 -0.7108 -0.7109 -0.7109 -0.7109 -0.7109 -0.7109 -0.7109 
-0.7108 -0.7108 -0.7108 -0.7108 -0.7108 -0.7108 -0.7108 -0.7108 -0.7108 -0.7108 -0.7108 -0.7108 -0.7108 -0.7108 -0.7108 -0.7109 -0.7109 -0.7109 -0.7109 -0.7109 -0.7109 
-0.7108 -0.7108 -0.7108 -0.7108 -0.7108 -0.7108 -0.7108 -0.7108 -0.7108 -0.7108 -0.7108 -0.7108 -0.7108 -0.7108 -0.7108 -0.7109 -0.7109 -0.7109 -0.7109 -0.7109 -0.7109 
-0.7108 -0.7108 -0.7108 -0.7108 -0.7108 -0.7108 -0.7108 -0.7108 -0.7108 -0.7108 -0.7108 -0.7108 -0.7108 -0.7108 -0.7108 -0.7109 -0.7109 -0.7109 -0.7109 -0.7109 -0.7109 
-0.7108 -0.7108 -0.7108 -0.7108 -0.7108 -0.7108 -0.7108 -0.7108 -0.7108 -0.7108 -0.7108 -0.7108 -0.7108 -0.7108 -0.7108 -0.7109 -0.7109 -0.7109 -0.7109 -0.7109 -0.7109 
-0.7108 -0.7108 -0.7108 -0.7108 -0.7108 -0.7108 -0.7108 -0.7108 -0.7108 -0.7108 -0.7108 -0.7108 -0.7108 -0.7108 -0.7108 -0.7109 -0.7109 -0.7109 -0.7109 -0.7109 -0.7109 
-0.7108 -0.7108 -0.7108 -0.7108 -0.7108 -0.7108 -0.7108 -0.7108 -0.7108 -0.7108 -0.7108 -0.7108 -0.7108 -0.7108 -0.7108 -0.7109 -0.7109 -0.7109 -0.7109 -0.7109 -0.7109 
-0.7108 -0.7108 -0.7108 -0.7108 -0.7108 -0.7108 -0.7108 -0.7108 -0.7108 -0.7108 -0.7108 -0.7108 -0.7108 -0.7108 -0.7108 -0.7109 -0.7109 -0.7109 -0.7109 -0.7109 -0.7109 
-0.7108 -0.7108 -0.7108 -0.7108 -0.7108 -0.7108 -0.7108 -0.7108 -0.7108 -0.7108 -0.7108 -0.7108 -0.7108 -0.7108 -0.7108 -0.7109 -0.7109 -0.7109 -0.7109 -0.7109 -0.7109 
-0.7108 -0.7108 -0.7108 -0.7108 -0.7108 -0.7108 -0.7108 -0.7108 -0.7108 -0.7108 -0.7108 -0.7108 -0.7108 -0.7108 -0.7108 -0.7109 -0.7109 -0.7109 -0.7109 -0.7109 -0.7109 
-0.7108 -0.7108 -0.7108 -0.7108 -0.7108 -0.7108 -0.7108 -0.7108 -0.7108 -0.7108 -0.7108 -0.7108 -0.7108 -0.7108 -0.7108 -0.7109 -0.7109 -0.7109 -0.7109 -0.7109 -0.7109 
-0.7108 -0.7108 -0.7108 -0.7108 -0.7108 -0.7108 -0.7108 -0.7108 -0.7108 -0.7108 -0.7108 -0.7108 -0.7108 -0.7108 -0.7108 -0.7109 -0.7109 -0.7109 -0.7109 -0.7109 -0.7109 
-0.7108 -0.7108 -0.7108 -0.7108 -0.7108 -0.7108 -0.7108 -0.7108 -0.7108 -0.7108 -0.7108 -0.7108 -0.7108 -0.7108 -0.7108 -0.7109 -0.7109 -0.7109 -0.7109 -0.7109 -0.7109 
-0.7108 -0.7108 -0.7108 -0.7108 -0.7108 -0.7108 -0.7108 -0.7108 -0.7108 -0.7108 -0.7108 -0.7108 -0.7108 -0.7108 -0.7108 -0.7109 -0.7109 -0.7109 -0.7109 -0.7109 -0.7109 
-0.7108 -0.7108 -0.7108 -0.7108 -0.7108 -0.7108 -0.7108 -0.7108 -0.7108 -0.7108 -0.7108 -0.7108 -0.7108 -0.7108 -0.7108 -0.7109 -0.7109 -0.7109 -0.7109 -0.7109 -0.7109 
-0.7108 -0.7108 -0.7108 -0.7108 -0.7108 -0.7108 -0.7108 -0.7108 -0.7108 -0.7108 -0.7108 -0.7108 -0.7108 -0.7108 -0.7108 -0.7109 -0.7109 -0.7109 -0.7109 -0.7109 -0.7109 
-0.7108 -0.7108 -0.7108 -0.7108 -0.7108 -0.7108 -0.7108 -0.7108 -0.7108 -0.7108 -0.7108 -0.7108 -0.7108 -0.7108 -0.7108 -0.7109 -0.7109 -0.7109 -0.7109 -0.7109 -0.7109 
-0.7108 -0.7108 -0.7108 -0.7108 -0.7108 -0.7108 -0.7108 -0.7108 -0.7108 -0.7108 -0.7108 -0.7108 -0.7108 -0.7108 -0.7108 -0.7109 -0.7109 -0.7109 -0.7109 -0.7109 -0.7109 
-0.7108 -0.7108 -0.7108 -0.7108 -0.7108 -0.7108 -0.7108 -0.7108 -0.7108 -0.7108 -0.7108 -0.7108 -0.7108 -0.7108 -0.7108 -0.7109 -0.7109 -0.7109 -0.7109 -0.7109 -0.7109 
-0.7108 -0.7108 -0.7108 -0.7108 -0.7108 -0.7108 -0.7108 -0.7108 -0.7108 -0.7108 -0.7108 -0.7108 -0.7108 -0.7108 -0.7108 -0.7109 -0.7109 -0.7109 -0.7109 -0.7109 -0.7109 
-0.7108 -0.7108 -0.7108 -0.7108 -0.7108 -0.7108 -0.7108 -0.7108 -0.7108 -0.7108 -0.7108 -0.7108 -0.7108 -0.7108 -0.7108 -0.7109 -0.7109 -0.7109 -0.7109 -0.7109 -0.7109 
-0.7108 -0.7108 -0.7108 -0.7108 -0.7108 -0.7108 -0.7108 -0.7108 -0.7108 -0.7108 -0.7108 -0.7108 -0.7108 -0.7108 -0.7108 -0.7109 -0.7109 -0.7109 -0.7109 -0.7109 -0.7109 
-0.7108 -0.7108 -0.7108 -0.7108 -0.7108 -0.7108 -0.7108 -0.7108 -0.7108 -0.7108 -0.7108 -0.7108 -0.7108 -0.7108 -0.7108 -0.7109 -0.7109 -0.7109 -0.7109 -0.7109 -0.7109 
-0.7108 -0.7108 -0.7108 -0.7108 -0.7108 -0.7108 -0.7108 -0.7108 -0.7108 -0.7108 -0.7108 -0.7108 -0.7108 -0.7108 -0.7108 -0.7109 -0.7109 -0.7109 -0.7109 -0.7109 -0.7109 
-0.7108 -0.7108 -0.7108 -0.7108 -0.7108 -0.7108 -0.7108 -0.7108 -0.7108 -0.7108 -0.7108 -0.7108 -0.7108 -0.7108 -0.7108 -0.7109 -0.7109 -0.7109 -0.7109 -0.7109 -0.7109 
-0.7108 -0.7108 -0.7108 -0.7108 -0.7108 -0.7108 -0.7108 -0.7108 -0.7108 -0.7108 -0.7108 -0.7108 -0.7108 -0.7108 -0.7108 -0.7109 -0.7109 -0.7109 -0.7109 -0.7109 -0.7109 
-0.7108 -0.7108 -0.7108 -0.7108 -0.7108 -0.7108 -0.7108 -0.7108 -0.7108 -0.7108 -0.7108 -0.7108 -0.7108 -0.7108 -0.7108 -0.7109 -0.7109 -0.7109 -0.7109 -0.7109 -0.7109 
-0.7108 -0.7108 -0.7108 -0.7108 -0.7108 -0.7108 -0.7108 -0.7108 -0.7108 -0.7108 -0.7108 -0.7108 -0.7108 -0.7108 -0.7108 -0.7109 -0.7109 -0.7109 -0.7109 -0.7109 -0.7109 
-0.7108 -0.7108 -0.7108 -0.7108 -0.7108 -0.7108 -0.7108 -0.7108 -0.7108 -0.7108 -0.7108 -0.7108 -0.7108 -0.7108 -0.7108 -0.7109 -0.7109 -0.7109 -0.7109 -0.7109 -0.7109 
-0.7108 -0.7108 -0.7108 -0.7108 -0.7108 -0.7108 -0.7108 -0.7108 -0.7108 -0.7108 -0.7108 -0.7108 -0.7108 -0.7108 -0.7108 -0.7109 -0.7109 -0.7109 -0.7109 -0.7109 -0.7109 
-0.7108 -0.7108 -0.7108 -0.7108 -0.7108 -0.7108 -0.7108 -0.7108 -0.7108 -0.7108 -0.7108 -0.7108 -0.7108 -0.7108 -0.7108 -0.7109 -0.7109 -0.7109 -0.7109 -0.7109 -0.7109 
-0.7108 -0.7108 -0.7108 -0.7108 -0.7108 -0.7108 -0.7108 -0.7108 -0.7108 -0.7108 -0.7108 -0.7108 -0.7108 -0.7108 -0.7108 -0.7109 -0.7109 -0.7109 -0.7109 -0.7109 -0.7109 
-0.7108 -0.7108 -0.7108 -0.7108 -0.7108 -0.7108 -0.7108 -0.7108 -0.7108 -0.7108 -0.7108 -0.7108 -0.7108 -0.7108 -0.7108 -0.7109 -0.7109 -0.7109 -0.7109 -0.7109 -0.7109 
-0.7108 -0.7108 -0.7108 -0.7108 -0.7108 -0.7108 -0.7108 -0.7108 -0.7108 -0.7108 -0.7108 -0.7108 -0.7108 -0.7108 -0.7108 -0.7109 -0.7109 -0.7109 -0.7109 -0.7109 -0.7109 
-0.7108 -0.7108 -0.7108 -0.7108 -0.7108 -0.7108 -0.7108 -0.7108 -0.7108 -0.7108 -0.7108 -0.7108 -0.7108 -0.7108 -0.7108 -0.7109 -0.7109 -0.7109 -0.7109 -0.7109 -0.7109 
-0.7108 -0.7108 -0.7108 -0.7108 -0.7108 -0.7108 -0.7108 -0.7108 -0.7108 -0.7108 -0.7108 -0.7108 -0.7108 -0.7108 -0.7108 -0.7109 -0.7109 -0.7109 -0.7109 -0.7109 -0.7109 
-0.7108 -0.7108 -0.7108 -0.7108 -0.7108 -0.7108 -0.7108 -0.7108 -0.7108 -0.7108 -0.7108 -0.7108 -0.7108 -0.7108 -0.7108 -0.7109 -0.7109 -0.7109 -0.7109 -0.7109 -0.7109 
-0.7108 -0.7108 -0.7108 -0.7108 -0.7108 -0.7108 -0.7108 -0.7108 -0.7108 -0.7108 -0.7108 -0.7108 -0.7108 -0.7108 -0.7108 -0.7109 -0.7109 -0.7109 -0.7109 -0.7109 -0.7109 
-0.7108 -0.7108 -0.7108 -0.7108 -0.7108 -0.7108 -0.7108 -0.7108 -0.7108 -0.7108 -0.7108 -0.7108 -0.7108 -0.7108 -0.7108 -0.7109 -0.7109 -0.7109 -0.7109 -0.7109 -0.7109 
</DataArray>
<DataArray Name="ne" NumberOfComponents="1" format="ascii" type="Float64">
0.9994 0.9994 0.9994 0.9994 0.9994 0.9994 0.9994 0.9994 0.9994 0.9994 0.9994 0.9994 0.9994 0.9994 0.9994 0.9994 0.9994 0.9994 0.9994 0.9994 0.9994 
0.9994 0.9994 0.9994 0.9994 0.9994 0.9994 0.9994 0.9994 0.9994 0.9994 0.9994 0.9994 0.9994 0.9994 0.9994 0.9994 0.9994 0.9994 0.9994 0.9994 0.9994 
0.9994 0.9994 0.9994 0.9994 0.9994 0.9994 0.9994 0.9994 0.9994 0.9994 0.9994 0.9994 0.9994 0.9994 0.9994 0.9994 0.9994 0.9994 0.9994 0.9994 0.9994 
0.9994 0.9994 0.9994 0.9994 0.9994 0.9994 0.9994 0.9994 0.9994 0.9994 0.9994 0.9994 0.9994 0.9994 0.9994 0.9994 0.9994 0.9994 0.9994 0.9994 0.9994 
0.9994 0.9994 0.9994 0.9994 0.9994 0.9994 0.9994 0.9994 0.9994 0.9994 0.9994 0.9994 0.9994 0.9994 0.9994 0.9994 0.9994 0.9994 0.9994 0.9994 0.9994 
0.9994 0.9994 0.9994 0.9994 0.9994 0.9994 0.9994 0.9994 0.9994 0.9994 0.9994 0.9994 0.9994 0.9994 0.9994 0.9994 0.9994 0.9994 0.9994 0.9994 0.9994 
0.9994 0.9994 0.9994 0.9994 0.9994 0.9994 0.9994 0.9994 0.9994 0.9994 0.9994 0.9994 0.9994 0.9994 0.9994 0.9994 0.9994 0.9994 0.9994 0.9994 0.9994 
0.9994 0.9994 0.9994 0.9994 0.9994 0.9994 0.9994 0.9994 0.9994 0.9994 0.9994 0.9994 0.9994 0.9994 0.9994 0.9994 0.9994 0.9994 0.9994 0.9994 0.9994 
0.9994 0.9994 0.9994 0.9994 0.9994 0.9994 0.9994 0.9994 0.9994 0.9994 0.9994 0.9994 0.9994 0.9994 0.9994 0.9994 0.9994 0.9994 0.9994 0.9994 0.9994 
0.9994 0.9994 0.9994 0.9994 0.9994 0.9994 0.9994 0.9994 0.9994 0.9994 0.9994 0.9994 0.9994 0.9994 0.9994 0.9994 0.9994 0.9994 0.9994 0.9994 0.9994 
0.9994 0.9994 0.9994 0.9994 0.9994 0.9994 0.9994 0.9994 0.9994 0.9994 0.9994 0.9994 0.9994 0.9994 0.9994 0.9994 0.9994 0.9994 0.9994 0.9994 0.9994 
0.9994 0.9994 0.9994 0.9994 0.9994 0.9994 0.9994 0.9994 0.9994 0.9994 0.9994 0.9994 0.9994 0.9994 0.9994 0.9994 0.9994 0.9994 0.9994 0.9994 0.9994 
0.9994 0.9994 0.9994 0.9994 0.9994 0.9994 0.9994 0.9994 0.9994 0.9994 0.9994 0.9994 0.9994 0.9994 0.9994 0.9994 0.9994 0.9994 0.9994 0.9994 0.9994 
0.9994 0.9994 0.9994 0.9994 0.9994 0.9994 0.9994 0.9994 0.9994 0.9994 0.9994 0.9994 0.9994 0.9994 0.9994 0.9994 0.9994 0.9994 0.9994 0.9994 0.9994 
0.9994 0.9994 0.9994 0.9994 0.9994 0.9994 0.9994 0.9994 0.9994 0.9994 0.9994 0.9994 0.9994 0.9994 0.9994 0.9994 0.9994 0.9994 0.9994 0.9994 0.9994 
0.9994 0.9994 0.9994 0.9994 0.9994 0.9994 0.9994 0.9994 0.9994 0.9994 0.9994 0.9994 0.9994 0.9994 0.9994 0.9994 0.9994 0.9994 0.9994 0.9994 0.9994 
0.9994 0.9994 0.9994 0.9994 0.9994 0.9994 0.9994 0.9994 0.9994 0.9994 0.9994 0.9994 0.9994 0.9994 0.9994 0.9994 0.9994 0.9994 0.9994 0.9994 0.9994 
0.9994 0.9994 0.9994 0.9994 0.9994 0.9994 0.9994 0.9994 0.9994 0.9994 0.9994 0.9994 0.9994 0.9994 0.9994 0.9994 0.9994 0.9994 0.9994 0.9994 0.9994 
0.9994 0.9994 0.9994 0.9994 0.9994 0.9994 0.9994 0.9994 0.9994 0.9994 0.9994 0.9994 0.9994 0.9994 0.9994 0.9994 0.9994 0.9994 0.9994 0.9994 0.9994 
0.9994 0.9994 0.9994 0.9994 0.9994 0.9994 0.9994 0.9994 0.9994 0.9994 0.9994 0.9994 0.9994 0.9994 0.9994 0.9994 0.9994 0.9994 0.9994 0.9994 0.9994 
0.9994 0.9994 0.9994 0.9994 0.9994 0.9994 0.9994 0.9994 0.9994 0.9994 0.9994 0.9994 0.9994 0.9994 0.9994 0.9994 0.9994 0.9994 0.9994 0.9994 0.9994 
0.9994 0.9994 0.9994 0.9994 0.9994 0.9994 0.9994 0.9994 0.9994 0.9994 0.9994 0.9994 0.9994 0.9994 0.9994 0.9994 0.9994 0.9994 0.9994 0.9994 0.9994 
0.9994 0.9994 0.9994 0.9994 0.9994 0.9994 0.9994 0.9994 0.9994 0.9994 0.9994 0.9994 0.9994 0.9994 0.9994 0.9994 0.9994 0.9994 0.9994 0.9994 0.9994 
0.9994 0.9994 0.9994 0.9994 0.9994 0.9994 0.9994 0.9994 0.9994 0.9994 0.9994 0.9994 0.9994 0.9994 0.9994 0.9994 0.9994 0.9994 0.9994 0.9994 0.9994 
0.9994 0.9994 0.9994 0.9994 0.9994 0.9994 0.9994 0.9994 0.9994 0.9994 0.9994 0.9994 0.9994 0.9994 0.9994 0.9994 0.9994 0.9994 0.9994 0.9994 0.9994 
0.9994 0.9994 0.9994 0.9994 0.9994 0.9994 0.9994 0.9994 0.9994 0.9994 0.9994 0.9994 0.9994 0.9994 0.9994 0.9994 0.9994 0.9994 0.9994 0.9994 0.9994 
0.9994 0.9994 0.9994 0.9994 0.9994 0.9994 0.9994 0.9994 0.9994 0.9994 0.9994 0.9994 0.9994 0.9994 0.9994 0.9994 0.9994 0.9994 0.9994 0.9994 0.9994 
0.9994 0.9994 0.9994 0.9994 0.9994 0.9994 0.9994 0.9994 0.9994 0.9994 0.9994 0.9994 0.9994 0.9994 0.9994 0.9994 0.9994 0.9994 0.9994 0.9994 0.9994 
0.9994 0.9994 0.9994 0.9994 0.9994 0.9994 0.9994 0.9994 0.9994 0.9994 0.9994 0.9994 0.9994 0.9994 0.9994 0.9994 0.9994 0.9994 0.9994 0.9994 0.9994 
0.9994 0.9994 0.9994 0.9994 0.9994 0.9994 0.9994 0.9994 0.9994 0.9994 0.9994 0.9994 0.9994 0.9994 0.9994 0.9994 0.9994 0.9994 0.9994 0.9994 0.9994 
0.9994 0.9994 0.9994 0.9994 0.9994 0.9994 0.9994 0.9994 0.9994 0.9994 0.9994 0.9994 0.9994 0.9994 0.9994 0.9994 0.9994 0.9994 0.9994 0.9994 0.9994 
0.9994 0.9994 0.9994 0.9994 0.9994 0.9994 0.9994 0.9994 0.9994 0.9994 0.9994 0.9994 0.9994 0.9994 0.9994 0.9994 0.9994 0.9994 0.9994 0.9994 0.9994 
0.9994 0.9994 0.9994 0.9994 0.9994 0.9994 0.9994 0.9994 0.9994 0.9994 0.9994 0.9994 0.9994 0.9994 0.9994 0.9994 0.9994 0.9994 0.9994 0.9994 0.9994 
0.9994 0.9994 0.9994 0.9994 0.9994 0.9994 0.9994 0.9994 0.9994 0.9994 0.9994 0.9994 0.9994 0.9994 0.9994 0.9994 0.9994 0.9994 0.9994 0.9994 0.9994 
0.9994 0.9994 0.9994 0.9994 0.9994 0.9994 0.9994 0.9994 0.9994 0.9994 0.9994 0.9994 0.9994 0.9994 0.9994 0.9994 0.9994 0.9994 0.9994 0.9994 0.9994 
0.9994 0.9994 0.9994 0.9994 0.9994 0.9994 0.9994 0.9994 0.9994 0.9994 0.9994 0.9994 0.9994 0.9994 0.9994 0.9994 0.9994 0.9994 0.9994 0.9994 0.9994 
0.9994 0.9994 0.9994 0.9994 0.9994 0.9994 0.9994 0.9994 0.9994 0.9994 0.9994 0.9994 0.9994 0.9994 0.9994 0.9994 0.9994 0.9994 0.9994 0.9994 0.9994 
0.9994 0.9994 0.9994 0.9994 0.9994 0.9994 0.9994 0.9994 0.9994 0.9994 0.9994 0.9994 0.9994 0.9994 0.9994 0.9994 0.9994 0.9994 0.9994 0.9994 0.9994 
0.9994 0.9994 0.9994 0.9994 0.9994 0.9994 0.9994 0.9994 0.9994 0.9994 0.9994 0.9994 0.9994 0.9994 0.9994 0.9994 0.9994 0.9994 0.9994 0.9994 0.9994 
0.9994 0.9994 0.9994 0.9994 0.9994 0.9994 0.9994 0.9994 0.9994 0.9994 0.9994 0.9994 0.9994 0.9994 0.9994 0.9994 0.9994 0.9994 0.9994 0.9994 0.9994 
0.9994 0.9994 0.9994 0.9994 0.9994 0.9994 0.9994 0.9994 0.9994 0.9994 0.9994 0.9994 0.9994 0.9994 0.9994 0.9994 0.9994 0.9994 0.9994 0.9994 0.9994 
</DataArray>
</PointData>
</Piece>
</ImageData>
</VTKFile>
