<VTKFile type="ImageData">
<ImageData Origin="0 -10 0" Spacing="0.5 0.5 1" WholeExtent="0 20 0 40 0 0">
<Piece Extent="0 20 0 40 0 0">
<PointData>
<DataArray Name="f" NumberOfComponents="1" format="ascii" type="Float64">
2.454e-05 2.454e-05 2.454e-05 2.454e-05 2.454e-05 2.454e-05 2.454e-05 2.454e-05 2.454e-05 2.454e-05 2.454e-05 2.454e-05 2.454e-05 2.454e-05 2.454e-05 2.454e-05 2.454e-05 2.454e-05 2.454e-05 2.454e-05 2.454e-05 
6.804e-05 6.804e-05 6.804e-05 6.804e-05 6.804e-05 6.804e-05 6.804e-05 6.804e-05 6.804e-05 6.804e-05 6.804e-05 6.804e-05 6.804e-05 6.804e-05 6.804e-05 6.804e-05 6.804e-05 6.804e-05 6.804e-05 6.804e-05 6.804e-05 
0.0001775 0.0001775 0.0001775 0.0001775 0.0001775 0.0001775 0.0001775 0.0001775 0.0001775 0.0001775 0.0001775 0.0001775 0.0001775 0.0001775 0.0001775 0.0001775 0.0001775 0.0001775 0.0001775 0.0001775 0.0001775 
0.0004358 0.0004358 0.0004358 0.0004358 0.0004358 0.0004358 0.0004358 0.0004358 0.0004358 0.0004358 0.0004358 0.0004358 0.0004358 0.0004358 0.0004358 0.0004358 0.0004358 0.0004358 0.0004358 0.0004358 0.0004358 
0.001007 0.001007 0.001007 0.001007 0.001007 0.001007 0.001007 0.001007 0.001007 0.001007 0.001007 0.001007 0.001007 0.001007 0.001007 0.001007 0.001007 0.001007 0.001007 0.001007 0.001007 
0.002189 0.002189 0.002189 0.002189 0.002189 0.002189 0.002189 0.002189 0.002189 0.002189 0.002189 0.002189 0.002189 0.002189 0.002189 0.002189 0.002189 0.002189 0.002189 0.002189 0.002189 
0.004478 0.004478 0.004478 0.004478 0.004478 0.004478 0.004478 0.004478 0.004478 0.004478 0.004478 0.004478 0.004478 0.004478 0.004478 0.004478 0.004478 0.004478 0.004478 0.004478 0.004478 
0.008621 0.008621 0.008621 0.008621 0.008621 0.008621 0.008621 0.008621 0.008621 0.008621 0.008621 0.008621 0.008621 0.008621 0.008621 0.008621 0.008621 0.008621 0.008621 0.008621 0.008621 
0.01562 0.01562 0.01562 0.01562 0.01562 0.01562 0.01562 0.01562 0.01562 0.01562 0.01562 0.01562 0.01562 0.01562 0.01562 0.01562 0.01562 0.01562 0.01562 0.01562 0.01562 
0.02661 0.02661 0.02661 0.02661 0.02661 0.02661 0.02661 0.02661 0.02661 0.02661 0.02661 0.02661 0.02661 0.02661 0.02661 0.02661 0.02661 0.02661 0.02661 0.02661 0.02661 
0.04265 0.04265 0.04265 0.04265 0.04265 0.04265 0.04265 0.04265 0.04265 0.04265 0.04265 0.04265 0.04265 0.04265 0.04265 0.04265 0.04265 0.04265 0.04265 0.04265 0.04265 
0.06428 0.06428 0.06428 0.06428 0.06428 0.06428 0.06428 0.06428 0.06428 0.06428 0.06428 0.06428 0.06428 0.06428 0.06428 0.06428 0.06428 0.06428 0.06428 0.06428 0.06428 
0.09107 0.09107 0.09107 0.09107 0.09107 0.09107 0.09107 0.09107 0.09107 0.09107 0.09107 0.09107 0.09107 0.09107 0.09107 0.09107 0.09107 0.09107 0.09107 0.09107 0.09107 
0.1212 0.1212 0.1212 0.1212 0.1212 0.1212 0.1212 0.1212 0.1212 0.1212 0.1212 0.1212 0.1212 0.1212 0.1212 0.1212 0.1212 0.1212 0.1212 0.1212 0.1212 
0.1516 0.1516 0.1516 0.1516 0.1516 0.1516 0.1516 0.1516 0.1516 0.1516 0.1516 0.1516 0.1516 0.1516 0.1516 0.1516 0.1516 0.1516 0.1516 0.1516 0.1516 
0.178 0.178 0.178 0.178 0.178 0.178 0.178 0.178 0.178 0.178 0.178 0.178 0.178 0.178 0.178 0.178 0.178 0.178 0.178 0.178 0.178 
0.1962 0.1962 0.1962 0.1962 0.1962 0.1962 0.1962 0.1962 0.1962 0.1962 0.1962 0.1962 0.1962 0.1962 0.1962 0.1962 0.1962 0.1962 0.1962 0.1962 0.1962 
0.2028 0.2028 0.2028 0.2028 0.2028 0.2028 0.2028 0.2028 0.2028 0.2028 0.2028 0.2028 0.2028 0.2028 0.2028 0.2028 0.2028 0.2028 0.2028 0.2028 0.2028 
0.1966 0.1966 0.1966 0.1966 0.1966 0.1966 0.1966 0.1966 0.1966 0.1966 0.1966 0.1966 0.1966 0.1966 0.1966 0.1966 0.1966 0.1966 0.1966 0.1966 0.1966 
0.1785 0.1785 0.1785 0.1785 0.1785 0.1785 0.1785 0.1785 0.1785 0.1785 0.1785 0.1785 0.1785 0.1785 0.1785 0.1785 0.1785 0.1785 0.1785 0.1785 0.1785 
0.1518 0.1518 0.1518 0.1518 0.1518 0.1518 0.1518 0.1518 0.1518 0.1518 0.1518 0.1518 0.1518 0.1518 0.1518 0.1518 0.1518 0.1518 0.1518 0.1518 0.1518 
0.1208 0.1208 0.1208 0.1208 0.1208 0.1208 0.1208 0.1208 0.1208 0.1208 0.1208 0.1208 0.1208 0.1208 0.1208 0.1208 0.1208 0.1208 0.1208 0.1208 0.1208 
0.08992 0.08992 0.08992 0.08992 0.08992 0.08992 0.08992 0.08992 0.08992 0.08992 0.08992 0.08992 0.08992 0.08992 0.08992 0.08992 0.08992 0.08992 0.08992 0.08992 0.08992 
0.06253 0.06253 0.06253 0.06253 0.06253 0.06253 0.06253 0.06253 0.06253 0.06253 0.06253 0.06253 0.06253 0.06253 0.06253 0.06253 0.06253 0.06253 0.06253 0.06253 0.06253 
0.0406 0.0406 0.0406 0.0406 0.0406 0.0406 0.0406 0.0406 0.0406 0.0406 0.0406 0.0406 0.0406 0.0406 0.0406 0.0406 0.0406 0.0406 0.0406 0.0406 0.0406 
0.02459 0.02459 0.02459 0.02459 0.02459 0.02459 0.02459 0.02459 0.02459 0.02459 0.02459 0.02459 0.02459 0.02459 0.02459 0.02459 0.02459 0.02459 0.02459 0.02459 0.02459 
0.01388 0.01388 0.01388 0.01388 0.01388 0.01388 0.01388 0.01388 0.01388 0.01388 0.01388 0.01388 0.01388 0.01388 0.01388 0.01388 0.01388 0.01388 0.01388 0.01388 0.01388 
0.007296 0.007296 0.007296 0.007296 0.007296 0.007296 0.007295 0.007295 0.007295 0.007295 0.007295 0.007295 0.007295 0.007295 0.007295 0.007295 0.007295 0.007295 0.007296 0.007296 0.007296 
0.003566 0.003566 0.003567 0.003567 0.003567 0.003567 0.003566 0.003566 0.003566 0.003566 0.003566 0.003566 0.003566 0.003566 0.003566 0.003566 0.003566 0.003566 0.003566 0.003566 0.003566 
0.00162 0.00162 0.00162 0.00162 0.00162 0.00162 0.00162 0.00162 0.00162 0.00162 0.00162 0.00162 0.00162 0.00162 0.00162 0.00162 0.00162 0.00162 0.00162 0.00162 0.00162 
0.0006826 0.0006826 0.0006826 0.0006826 0.0006827 0.0006827 0.0006827 0.0006827 0.0006827 0.0006827 0.0006826 0.0006826 0.0006826 0.0006826 0.0006826 0.0006826 0.0006826 0.0006826 0.0006826 0.0006826 0.0006826 
0.0002666 0.0002666 0.0002666 0.0002666 0.0002666 0.0002666 0.0002666 0.0002666 0.0002666 0.0002666 0.0002666 0.0002666 0.0002666 0.0002666 0.0002666 0.0002666 0.0002666 0.0002666 0.0002666 0.0002666 0.0002666 
9.638e-05 9.638e-05 9.638e-05 9.638e-05 9.638e-05 9.638e-05 9.639e-05 9.639e-05 9.639e-05 9.639e-05 9.639e-05 9.639e-05 9.639e-05 9.639e-05 9.639e-05 9.638e-05 9.638e-05 9.638e-05 9.638e-05 9.638e-05 9.638e-05 
3.22e-05 3.22e-05 3.22e-05 3.22e-05 3.22e-05 3.22e-05 3.22e-05 3.22e-05 3.22e-05 3.22e-05 3.22e-05 3.22e-05 3.22e-05 3.22e-05 3.22e-05 3.22e-05 3.22e-05 3.22e-05 3.22e-05 3.22e-05 3.22e-05 
9.929e-06 9.929e-06 9.929e-06 9.928e-06 9.929e-06 9.929e-06 9.929e-06 9.929e-06 9.929e-06 9.929e-06 9.93e-06 9.93e-06 9.93e-06 9.93e-06 9.93e-06 9.93e-06 9.93e-06 9.93e-06 9.93e-06 9.929e-06 9.929e-06 
2.833e-06 2.833e-06 2.833e-06 2.833e-06 2.833e-06 2.833e-06 2.833e-06 2.833e-06 2.833e-06 2.833e-06 2.833e-06 2.833e-06 2.833e-06 2.833e-06 2.834e-06 2.834e-06 2.834e-06 2.834e-06 2.834e-06 2.833e-06 2.833e-06 
7.954e-07 7.954e-07 7.954e-07 7.953e-07 7.953e-07 7.953e-07 7.953e-07 7.953e-07 7.953e-07 7.953e-07 7.953e-07 7.953e-07 7.953e-07 7.954e-07 7.954e-07 7.954e-07 7.954e-07 7.954e-07 7.954e-07 7.954e-07 7.954e-07 
4.009e-07 4.009e-07 4.009e-07 4.009e-07 4.009e-07 4.008e-07 4.008e-07 4.008e-07 4.008e-07 4.008e-07 4.008e-07 4.008e-07 4.008e-07 4.009e-07 4.009e-07 4.009e-07 4.009e-07 4.009e-07 4.009e-07 4.009e-07 4.009e-07 
8.353e-07 8.352e-07 8.352e-07 8.352e-07 8.352e-07 8.352e-07 8.352e-07 8.352e-07 8.353e-07 8.353e-07 8.353e-07 8.353e-07 8.353e-07 8.353e-07 8.353e-07 8.353e-07 8.353e-07 8.353e-07 8.353e-07 8.353e-07 8.353e-07 
2.664e-06 2.664e-06 2.664e-06 2.664e-06 2.664e-06 2.664e-06 2.663e-06 2.664e-06 2.664e-06 2.664e-06 2.664e-06 2.664e-06 2.664e-06 2.664e-06 2.664e-06 2.664e-06 2.664e-06 2.664e-06 2.664e-06 2.664e-06 2.664e-06 
8.326e-06 8.326e-06 8.326e-06 8.326e-06 8.326e-06 8.326e-06 8.326e-06 8.326e-06 8.326e-06 8.326e-06 8.326e-06 8.326e-06 8.326e-06 8.326e-06 8.326e-06 8.326e-06 8.326e-06 8.326e-06 8.326e-06 8.326e-06 8.326e-06 
</DataArray>
<DataArray Name="E" NumberOfComponents="1" format="ascii" type="Float64">
-1.448 -1.448 -1.448 -1.448 -1.448 -1.448 -1.448 -1.448 -1.448 -1.448 -1.448 -1.448 -1.448 -1.448 -1.448 -1.448 -1.448 -1.448 -1.448 -1.448 -1.448 
-1.448 -1.448 -1.448 -1.448 -1.448 -1.448 -1.448 -1.448 -1.448 -1.448 -1.448 -1.448 -1.448 -1.448 -1.448 -1.448 -1.448 -1.448 -1.448 -1.448 -1.448 
-1.448 -1.448 -1.448 -1.448 -1.448 -1.448 -1.448 -1.448 -1.448 -1.448 -1.448 -1.448 -1.448 -1.448 -1.448 -1.448 -1.448 -1.448 -1.448 -1.448 -1.448 
-1.448 -1.448 -1.448 -1.448 -1.448 -1.448 -1.448 -1.448 -1.448 -1.448 -1.448 -1.448 -1.448 -1.448 -1.448 -1.448 -1.448 -1.448 -1.448 -1.448 -1.448 
-1.448 -1.448 -1.448 -1.448 -1.448 -1.448 -1.448 -1.448 -1.448 -1.448 -1.448 -1.448 -1.448 -1.448 -1.448 -1.448 -1.448 -1.448 -1.448 -1.448 -1.448 
-1.448 -1.448 -1.448 -1.448 -1.448 -1.448 -1.448 -1.448 -1.448 -1.448 -1.448 -1.448 -1.448 -1.448 -1.448 -1.448 -1.448 -1.448 -1.448 -1.448 -1.448 
-1.448 -1.448 -1.448 -1.448 -1.448 -1.448 -1.448 -1.448 -1.448 -1.448 -1.448 -1.448 -1.448 -1.448 -1.448 -1.448 -1.448 -1.448 -1.448 -1.448 -1.448 
-1.448 -1.448 -1.448 -1.448 -1.448 -1.448 -1.448 -1.448 -1.448 -1.448 -1.448 -1.448 -1.448 -1.448 -1.448 -1.448 -1.448 -1.448 -1.448 -1.448 -1.448 
-1.448 -1.448 -1.448 -1.448 -1.448 -1.448 -1.448 -1.448 -1.448 -1.448 -1.448 -1.448 -1.448 -1.448 -1.448 -1.448 -1.448 -1.448 -1.448 -1.448 -1.448 
-1.448 -1.448 -1.448 -1.448 -1.448 -1.448 -1.448 -1.448 -1.448 -1.448 -1.448 -1.448 -1.448 -1.448 -1.448 -1.448 -1.448 -1.448 -1.448 -1.448 -1.448 
-1.448 -1.448 -1.448 -1.448 -1.448 -1.448 -1.448 -1.448 -1.448 -1.448 -1.448 -1.448 -1.448 -1.448 -1.448 -1.448 -1.448 -1.448 -1.448 -1.448 -1.448 
-1.448 -1.448 -1.448 -1.448 -1.448 -1.448 -1.448 -1.448 -1.448 -1.448 -1.448 -1.448 -1.448 -1.448 -1.448 -1.448 -1.448 -1.448 -1.448 -1.448 -1.448 
-1.448 -1.448 -1.448 -1.448 -1.448 -1.448 -1.448 -1.448 -1.448 -1.448 -1.448 -1.448 -1.448 -1.448 -1.448 -1.448 -1.448 -1.448 -1.448 -1.448 -1.448 
-1.448 -1.448 -1.448 -1.448 -1.448 -1.448 -1.448 -1.448 -1.448 -1.448 -1.448 -1.448 -1.448 -1.448 -1.448 -1.448 -1.448 -1.448 -1.448 -1.448 -1.448 
-1.448 -1.448 -1.448 -1.448 -1.448 -1.448 -1.448 -1.448 -1.448 -1.448 -1.448 -1.448 -1.448 -1.448 -1.448 -1.448 -1.448 -1.448 -1.448 -1.448 -1.448 
-1.448 -1.448 -1.448 -1.448 -1.448 -1.448 -1.448 -1.448 -1.448 -1.448 -1.448 -1.448 -1.448 -1.448 -1.448 -1.448 -1.448 -1.448 -1.448 -1.448 -1.448 
-1.448 -1.448 -1.448 -1.448 -1.448 -1.448 -1.448 -1.448 -1.448 -1.448 -1.448 -1.448 -1.448 -1.448 -1.448 -1.448 -1.448 -1.448 -1.448 -1.448 -1.448 
-1.448 -1.448 -1.448 -1.448 -1.448 -1.448 -1.448 -1.448 -1.448 -1.448 -1.448 -1.448 -1.448 -1.448 -1.448 -1.448 -1.448 -1.448 -1.448 -1.448 -1.448 
-1.448 -1.448 -1.448 -1.448 -1.448 -1.448 -1.448 -1.448 -1.448 -1.448 -1.448 -1.448 -1.448 -1.448 -1.448 -1.448 -1.448 -1.448 -1.448 -1.448 -1.448 
-1.448 -1.448 -1.448 -1.448 -1.448 -1.448 -1.448 -1.448 -1.448 -1.448 -1.448 -1.448 -1.448 -1.448 -1.448 -1.448 -1.448 -1.448 -1.448 -1.448 -1.448 
-1.448 -1.448 -1.448 -1.448 -1.448 -1.448 -1.448 -1.448 -1.448 -1.448 -1.448 -1.448 -1.448 -1.448 -1.448 -1.448 -1.448 -1.448 -1.448 -1.448 -1.448 
-1.448 -1.448 -1.448 -1.448 -1.448 -1.448 -1.448 -1.448 -1.448 -1.448 -1.448 -1.448 -1.448 -1.448 -1.448 -1.448 -1.448 -1.448 -1.448 -1.448 -1.448 
-1.448 -1.448 -1.448 -1.448 -1.448 -1.448 -1.448 -1.448 -1.448 -1.448 -1.448 -1.448 -1.448 -1.448 -1.448 -1.448 -1.448 -1.448 -1.448 -1.448 -1.448 
-1.448 -1.448 -1.448 -1.448 -1.448 -1.448 -1.448 -1.448 -1.448 -1.448 -1.448 -1.448 -1.448 -1.448 -1.448 -1.448 -1.448 -1.448 -1.448 -1.448 -1.448 
-1.448 -1.448 -1.448 -1.448 -1.448 -1.448 -1.448 -1.448 -1.448 -1.448 -1.448 -1.448 -1.448 -1.448 -1.448 -1.448 -1.448 -1.448 -1.448 -1.448 -1.448 
-1.448 -1.448 -1.448 -1.448 -1.448 -1.448 -1.448 -1.448 -1.448 -1.448 -1.448 -1.448 -1.448 -1.448 -1.448 -1.448 -1.448 -1.448 -1.448 -1.448 -1.448 
-1.448 -1.448 -1.448 -1.448 -1.448 -1.448 -1.448 -1.448 -1.448 -1.448 -1.448 -1.448 -1.448 -1.448 -1.448 -1.448 -1.448 -1.448 -1.448 -1.448 -1.448 
-1.448 -1.448 -1.448 -1.448 -1.448 -1.448 -1.448 -1.448 -1.448 -1.448 -1.448 -1.448 -1.448 -1.448 -1.448 -1.448 -1.448 -1.448 -1.448 -1.448 -1.448 
-1.448 -1.448 -1.448 -1.448 -1.448 -1.448 -1.448 -1.448 -1.448 -1.448 -1.448 -1.448 -1.448 -1.448 -1.448 -1.448 -1.448 -1.448 -1.448 -1.448 -1.448 
-1.448 -1.448 -1.448 -1.448 -1.448 -1.448 -1.448 -1.448 -1.448 -1.448 -1.448 -1.448 -1.448 -1.448 -1.448 -1.448 -1.448 -1.448 -1.448 -1.448 -1.448 
-1.448 -1.448 -1.448 -1.448 -1.448 -1.448 -1.448 -1.448 -1.448 -1.448 -1.448 -1.448 -1.448 -1.448 -1.448 -1.448 -1.448 -1.448 -1.448 -1.448 -1.448 
-1.448 -1.448 -1.448 -1.448 -1.448 -1.448 -1.448 -1.448 -1.448 -1.448 -1.448 -1.448 -1.448 -1.448 -1.448 -1.448 -1.448 -1.448 -1.448 -1.448 -1.448 
-1.448 -1.448 -1.448 -1.448 -1.448 -1.448 -1.448 -1.448 -1.448 -1.448 -1.448 -1.448 -1.448 -1.448 -1.448 -1.448 -1.448 -1.448 -1.448 -1.448 -1.448 
-1.448 -1.448 -1.448 -1.448 -1.448 -1.448 -1.448 -1.448 -1.448 -1.448 -1.448 -1.448 -1.448 -1.448 -1.448 -1.448 -1.448 -1.448 -1.448 -1.448 -1.448 
-1.448 -1.448 -1.448 -1.448 -1.448 -1.448 -1.448 -1.448 -1.448 -1.448 -1.448 -1.448 -1.448 -1.448 -1.448 -1.448 -1.448 -1.448 -1.448 -1.448 -1.448 
-1.448 -1.448 -1.448 -1.448 -1.448 -1.448 -1.448 -1.448 -1.448 -1.448 -1.448 -1.448 -1.448 -1.448 -1.448 -1.448 -1.448 -1.448 -1.448 -1.448 -1.448 
-1.448 -1.448 -1.448 -1.448 -1.448 -1.448 -1.448 -1.448 -1.448 -1.448 -1.448 -1.448 -1.448 -1.448 -1.448 -1.448 -1.448 -1.448 -1.448 -1.448 -1.448 
-1.448 -1.448 -1.448 -1.448 -1.448 -1.448 -1.448 -1.448 -1.448 -1.448 -1.448 -1.448 -1.448 -1.448 -1.448 -1.448 -1.448 -1.448 -1.448 -1.448 -1.448 
-1.448 -1.448 -1.448 -1.448 -1.448 -1.448 -1.448 -1.448 -1.448 -1.448 -1.448 -1.448 -1.448 -1.448 -1.448 -1.448 -1.448 -1.448 -1.448 -1.448 -1.448 
-1.448 -1.448 -1.448 -1.448 -1.448 -1.448 -1.448 -1.448 -1.448 -1.448 -1.448 -1.448 -1.448 -1.448 -1.448 -1.448 -1.448 -1.448 -1.448 -1.448 -1.448 
-1.448 -1.448 -1.448 -1.448 -1.448 -1.448 -1.448 -1.448 -1.448 -1.448 -1.448 -1.448 -1.448 -1.448 -1.448 -1.448 -1.448 -1.448 -1.448 -1.448 -1.448 
</DataArray>
<DataArray Name="ne" NumberOfComponents="1" format="ascii" type="Float64">
1 1 1 1 1 1 1 1 1 1 1 1 1 1 1 1 1 1 1 1 1 
1 1 1 1 1 1 1 1 1 1 1 1 1 1 1 1 1 1 1 1 1 
1 1 1 1 1 1 1 1 1 1 1 1 1 1 1 1 1 1 1 1 1 
1 1 1 1 1 1 1 1 1 1 1 1 1 1 1 1 1 1 1 1 1 
1 1 1 1 1 1 1 1 1 1 1 1 1 1 1 1 1 1 1 1 1 
1 1 1 1 1 1 1 1 1 1 1 1 1 1 1 1 1 1 1 1 1 
1 1 1 1 1 1 1 1 1 1 1 1 1 1 1 1 1 1 1 1 1 
1 1 1 1 1 1 1 1 1 1 1 1 1 1 1 1 1 1 1 1 1 
1 1 1 1 1 1 1 1 1 1 1 1 1 1 1 1 1 1 1 1 1 
1 1 1 1 1 1 1 1 1 1 1 1 1 1 1 1 1 1 1 1 1 
1 1 1 1 1 1 1 1 1 1 1 1 1 1 1 1 1 1 1 1 1 
1 1 1 1 1 1 1 1 1 1 1 1 1 1 1 1 1 1 1 1 1 
1 1 1 1 1 1 1 1 1 1 1 1 1 1 1 1 1 1 1 1 1 
1 1 1 1 1 1 1 1 1 1 1 1 1 1 1 1 1 1 1 1 1 
1 1 1 1 1 1 1 1 1 1 1 1 1 1 1 1 1 1 1 1 1 
1 1 1 1 1 1 1 1 1 1 1 1 1 1 1 1 1 1 1 1 1 
1 1 1 1 1 1 1 1 1 1 1 1 1 1 1 1 1 1 1 1 1 
1 1 1 1 1 1 1 1 1 1 1 1 1 1 1 1 1 1 1 1 1 
1 1 1 1 1 1 1 1 1 1 1 1 1 1 1 1 1 1 1 1 1 
1 1 1 1 1 1 1 1 1 1 1 1 1 1 1 1 1 1 1 1 1 
1 1 1 1 1 1 1 1 1 1 1 1 1 1 1 1 1 1 1 1 1 
1 1 1 1 1 1 1 1 1 1 1 1 1 1 1 1 1 1 1 1 1 
1 1 1 1 1 1 1 1 1 1 1 1 1 1 1 1 1 1 1 1 1 
1 1 1 1 1 1 1 1 1 1 1 1 1 1 1 1 1 1 1 1 1 
1 1 1 1 1 1 1 1 1 1 1 1 1 1 1 1 1 1 1 1 1 
1 1 1 1 1 1 1 1 1 1 1 1 1 1 1 1 1 1 1 1 1 
1 1 1 1 1 1 1 1 1 1 1 1 1 1 1 1 1 1 1 1 1 
1 1 1 1 1 1 1 1 1 1 1 1 1 1 1 1 1 1 1 1 1 
1 1 1 1 1 1 1 1 1 1 1 1 1 1 1 1 1 1 1 1 1 
1 1 1 1 1 1 1 1 1 1 1 1 1 1 1 1 1 1 1 1 1 
1 1 1 1 1 1 1 1 1 1 1 1 1 1 1 1 1 1 1 1 1 
1 1 1 1 1 1 1 1 1 1 1 1 1 1 1 1 1 1 1 1 1 
1 1 1 1 1 1 1 1 1 1 1 1 1 1 1 1 1 1 1 1 1 
1 1 1 1 1 1 1 1 1 1 1 1 1 1 1 1 1 1 1 1 1 
1 1 1 1 1 1 1 1 1 1 1 1 1 1 1 1 1 1 1 1 1 
1 1 1 1 1 1 1 1 1 1 1 1 1 1 1 1 1 1 1 1 1 
1 1 1 1 1 1 1 1 1 1 1 1 1 1 1 1 1 1 1 1 1 
1 1 1 1 1 1 1 1 1 1 1 1 1 1 1 1 1 1 1 1 1 
1 1 1 1 1 1 1 1 1 1 1 1 1 1 1 1 1 1 1 1 1 
1 1 1 1 1 1 1 1 1 1 1 1 1 1 1 1 1 1 1 1 1 
1 1 1 1 1 1 1 1 1 1 1 1 1 1 1 1 1 1 1 1 1 
</DataArray>
</PointData>
</Piece>
</ImageData>
</VTKFile>
