<VTKFile type="ImageData">
<ImageData Origin="0 -10 0" Spacing="0.5 0.5 1" WholeExtent="0 20 0 40 0 0">
<Piece Extent="0 20 0 40 0 0">
<PointData>
<DataArray Name="f" NumberOfComponents="1" format="ascii" type="Float64">
0.003943 0.003943 0.003943 0.003943 0.003943 0.003943 0.003943 0.003943 0.003943 0.003943 0.003943 0.003943 0.003943 0.003943 0.003943 0.003943 0.003943 0.003943 0.003943 0.003943 0.003943 
0.002128 0.002128 0.002128 0.002128 0.002128 0.002128 0.002128 0.002128 0.002128 0.002128 0.002128 0.002128 0.002128 0.002128 0.002128 0.002128 0.002128 0.002128 0.002128 0.002128 0.002128 
0.001094 0.001094 0.001094 0.001094 0.001094 0.001095 0.001095 0.001095 0.001095 0.001095 0.001095 0.001095 0.001095 0.001095 0.001095 0.001095 0.001095 0.001095 0.001095 0.001095 0.001094 
0.0005362 0.0005363 0.0005363 0.0005363 0.0005363 0.0005363 0.0005363 0.0005363 0.0005363 0.0005363 0.0005363 0.0005363 0.0005363 0.0005363 0.0005363 0.0005363 0.0005363 0.0005363 0.0005363 0.0005363 0.0005362 
0.0002504 0.0002504 0.0002504 0.0002504 0.0002504 0.0002504 0.0002504 0.0002504 0.0002504 0.0002504 0.0002504 0.0002504 0.0002504 0.0002504 0.0002504 0.0002504 0.0002504 0.0002504 0.0002504 0.0002504 0.0002504 
0.0001118 0.0001118 0.0001118 0.0001118 0.0001118 0.0001118 0.0001118 0.0001118 0.0001119 0.0001119 0.0001119 0.0001119 0.0001119 0.0001119 0.0001119 0.0001119 0.0001118 0.0001118 0.0001118 0.0001118 0.0001118 
4.922e-05 4.922e-05 4.922e-05 4.922e-05 4.922e-05 4.922e-05 4.922e-05 4.922e-05 4.922e-05 4.922e-05 4.922e-05 4.922e-05 4.922e-05 4.922e-05 4.922e-05 4.922e-05 4.922e-05 4.922e-05 4.922e-05 4.922e-05 4.922e-05 
2.515e-05 2.515e-05 2.515e-05 2.515e-05 2.515e-05 2.515e-05 2.515e-05 2.515e-05 2.515e-05 2.515e-05 2.515e-05 2.515e-05 2.515e-05 2.515e-05 2.515e-05 2.515e-05 2.515e-05 2.515e-05 2.515e-05 2.515e-05 2.515e-05 
2.353e-05 2.353e-05 2.353e-05 2.353e-05 2.353e-05 2.353e-05 2.353e-05 2.353e-05 2.353e-05 2.353e-05 2.353e-05 2.353e-05 2.353e-05 2.353e-05 2.353e-05 2.353e-05 2.353e-05 2.353e-05 2.353e-05 2.353e-05 2.353e-05 
4.284e-05 4.284e-05 4.284e-05 4.284e-05 4.284e-05 4.283e-05 4.283e-05 4.283e-05 4.283e-05 4.283e-05 4.283e-05 4.283e-05 4.283e-05 4.283e-05 4.283e-05 4.283e-05 4.283e-05 4.283e-05 4.283e-05 4.283e-05 4.284e-05 
9.533e-05 9.533e-05 9.533e-05 9.533e-05 9.533e-05 9.533e-05 9.532e-05 9.532e-05 9.532e-05 9.532e-05 9.532e-05 9.532e-05 9.532e-05 9.532e-05 9.532e-05 9.532e-05 9.532e-05 9.532e-05 9.532e-05 9.532e-05 9.533e-05 
0.0002118 0.0002118 0.0002118 0.0002118 0.0002117 0.0002117 0.0002117 0.0002117 0.0002117 0.0002117 0.0002117 0.0002117 0.0002117 0.0002117 0.0002117 0.0002117 0.0002117 0.0002117 0.0002117 0.0002117 0.0002118 
0.000452 0.000452 0.000452 0.000452 0.000452 0.000452 0.000452 0.0004519 0.0004519 0.0004519 0.0004519 0.0004519 0.0004519 0.0004519 0.0004519 0.0004519 0.0004519 0.0004519 0.0004519 0.0004519 0.000452 
0.0009218 0.0009218 0.0009218 0.0009218 0.0009218 0.0009218 0.0009218 0.0009218 0.0009218 0.0009217 0.0009217 0.0009217 0.0009217 0.0009217 0.0009217 0.0009217 0.0009217 0.0009217 0.0009217 0.0009218 0.0009218 
0.001795 0.001795 0.001795 0.001795 0.001795 0.001795 0.001795 0.001795 0.001795 0.001795 0.001795 0.001795 0.001795 0.001795 0.001795 0.001795 0.001795 0.001795 0.001795 0.001795 0.001795 
0.003339 0.003339 0.003339 0.003339 0.003339 0.003339 0.003339 0.003339 0.003339 0.003339 0.003339 0.003339 0.003339 0.003339 0.003339 0.003339 0.003339 0.003339 0.003339 0.003339 0.003339 
0.005932 0.005932 0.005932 0.005932 0.005932 0.005932 0.005932 0.005932 0.005932 0.005932 0.005932 0.005931 0.005931 0.005931 0.005931 0.005931 0.005931 0.005931 0.005931 0.005931 0.005932 
0.01007 0.01007 0.01007 0.01007 0.01007 0.01007 0.01007 0.01007 0.01007 0.01007 0.01007 0.01007 0.01007 0.01007 0.01007 0.01007 0.01007 0.01007 0.01007 0.01007 0.01007 
0.01632 0.01632 0.01632 0.01632 0.01632 0.01632 0.01632 0.01632 0.01632 0.01632 0.01632 0.01632 0.01632 0.01632 0.01632 0.01632 0.01632 0.01632 0.01632 0.01632 0.01632 
0.02529 0.02529 0.02529 0.02529 0.02529 0.02529 0.02529 0.02529 0.02529 0.02529 0.02529 0.02529 0.02529 0.02529 0.02529 0.02529 0.02529 0.02529 0.02529 0.02529 0.02529 
0.03744 0.03744 0.03744 0.03744 0.03744 0.03744 0.03744 0.03744 0.03744 0.03744 0.03744 0.03744 0.03744 0.03744 0.03744 0.03744 0.03744 0.03744 0.03744 0.03744 0.03744 
0.05298 0.05298 0.05298 0.05298 0.05298 0.05298 0.05298 0.05298 0.05298 0.05298 0.05298 0.05297 0.05297 0.05297 0.05297 0.05297 0.05297 0.05297 0.05297 0.05297 0.05298 
0.07164 0.07165 0.07165 0.07165 0.07165 0.07165 0.07165 0.07165 0.07165 0.07164 0.07164 0.07164 0.07164 0.07164 0.07164 0.07164 0.07164 0.07164 0.07164 0.07164 0.07164 
0.09261 0.09261 0.09262 0.09262 0.09262 0.09261 0.09261 0.09261 0.09261 0.09261 0.09261 0.09261 0.09261 0.09261 0.09261 0.09261 0.09261 0.09261 0.09261 0.09261 0.09261 
0.1144 0.1144 0.1144 0.1144 0.1144 0.1144 0.1144 0.1144 0.1144 0.1144 0.1144 0.1144 0.1144 0.1144 0.1144 0.1144 0.1144 0.1144 0.1144 0.1144 0.1144 
0.1352 0.1352 0.1352 0.1352 0.1352 0.1352 0.1352 0.1352 0.1352 0.1352 0.1352 0.1352 0.1352 0.1352 0.1352 0.1351 0.1351 0.1351 0.1351 0.1351 0.1352 
0.1526 0.1526 0.1526 0.1526 0.1526 0.1526 0.1526 0.1526 0.1526 0.1526 0.1526 0.1526 0.1526 0.1526 0.1526 0.1526 0.1526 0.1526 0.1526 0.1526 0.1526 
0.1646 0.1646 0.1646 0.1646 0.1646 0.1646 0.1646 0.1646 0.1646 0.1646 0.1646 0.1646 0.1646 0.1646 0.1646 0.1646 0.1646 0.1646 0.1646 0.1646 0.1646 
0.1698 0.1698 0.1698 0.1698 0.1698 0.1698 0.1698 0.1698 0.1698 0.1698 0.1698 0.1698 0.1698 0.1698 0.1698 0.1698 0.1698 0.1698 0.1698 0.1698 0.1698 
0.1674 0.1674 0.1674 0.1674 0.1674 0.1674 0.1674 0.1674 0.1674 0.1674 0.1674 0.1674 0.1674 0.1674 0.1674 0.1674 0.1674 0.1674 0.1674 0.1674 0.1674 
0.1577 0.1577 0.1577 0.1577 0.1577 0.1577 0.1577 0.1577 0.1577 0.1577 0.1577 0.1577 0.1577 0.1577 0.1577 0.1577 0.1577 0.1577 0.1577 0.1577 0.1577 
0.142 0.142 0.142 0.142 0.142 0.142 0.142 0.142 0.142 0.142 0.142 0.142 0.142 0.142 0.142 0.142 0.142 0.142 0.142 0.142 0.142 
0.1221 0.1221 0.1221 0.1221 0.1221 0.1221 0.1221 0.1221 0.1221 0.1221 0.1221 0.1221 0.1221 0.1221 0.1221 0.1221 0.1221 0.1221 0.1221 0.1221 0.1221 
0.1004 0.1004 0.1004 0.1004 0.1004 0.1004 0.1004 0.1004 0.1004 0.1004 0.1004 0.1004 0.1004 0.1004 0.1004 0.1004 0.1004 0.1004 0.1004 0.1004 0.1004 
0.07878 0.07878 0.07878 0.07878 0.07878 0.07877 0.07877 0.07877 0.07877 0.07877 0.07878 0.07878 0.07878 0.07878 0.07878 0.07878 0.07878 0.07878 0.07878 0.07878 0.07878 
0.05906 0.05906 0.05906 0.05906 0.05906 0.05906 0.05906 0.05906 0.05906 0.05906 0.05906 0.05906 0.05906 0.05906 0.05906 0.05906 0.05906 0.05906 0.05906 0.05906 0.05906 
0.04228 0.04228 0.04228 0.04228 0.04228 0.04228 0.04228 0.04228 0.04228 0.04228 0.04228 0.04228 0.04228 0.04228 0.04228 0.04228 0.04228 0.04228 0.04228 0.04228 0.04228 
0.02889 0.02889 0.02889 0.02889 0.02889 0.02889 0.02889 0.02889 0.02889 0.02889 0.02889 0.02889 0.02889 0.02889 0.02889 0.02889 0.02889 0.02889 0.02889 0.02889 0.02889 
0.01885 0.01885 0.01885 0.01885 0.01885 0.01885 0.01885 0.01885 0.01885 0.01885 0.01885 0.01885 0.01885 0.01885 0.01885 0.01885 0.01885 0.01885 0.01885 0.01885 0.01885 
0.01173 0.01173 0.01173 0.01173 0.01173 0.01173 0.01173 0.01173 0.01173 0.01173 0.01173 0.01173 0.01173 0.01173 0.01173 0.01173 0.01173 0.01173 0.01173 0.01173 0.01173 
0.006965 0.006964 0.006964 0.006964 0.006964 0.006964 0.006964 0.006964 0.006964 0.006964 0.006964 0.006964 0.006964 0.006964 0.006964 0.006964 0.006964 0.006964 0.006964 0.006964 0.006965 
</DataArray>
<DataArray Name="E" NumberOfComponents="1" format="ascii" type="Float64">
-2.814 -2.814 -2.814 -2.814 -2.814 -2.814 -2.814 -2.814 -2.814 -2.814 -2.814 -2.814 -2.814 -2.814 -2.814 -2.814 -2.814 -2.814 -2.814 -2.814 -2.814 
-2.814 -2.814 -2.814 -2.814 -2.814 -2.814 -2.814 -2.814 -2.814 -2.814 -2.814 -2.814 -2.814 -2.814 -2.814 -2.814 -2.814 -2.814 -2.814 -2.814 -2.814 
-2.814 -2.814 -2.814 -2.814 -2.814 -2.814 -2.814 -2.814 -2.814 -2.814 -2.814 -2.814 -2.814 -2.814 -2.814 -2.814 -2.814 -2.814 -2.814 -2.814 -2.814 
-2.814 -2.814 -2.814 -2.814 -2.814 -2.814 -2.814 -2.814 -2.814 -2.814 -2.814 -2.814 -2.814 -2.814 -2.814 -2.814 -2.814 -2.814 -2.814 -2.814 -2.814 
-2.814 -2.814 -2.814 -2.814 -2.814 -2.814 -2.814 -2.814 -2.814 -2.814 -2.814 -2.814 -2.814 -2.814 -2.814 -2.814 -2.814 -2.814 -2.814 -2.814 -2.814 
-2.814 -2.814 -2.814 -2.814 -2.814 -2.814 -2.814 -2.814 -2.814 -2.814 -2.814 -2.814 -2.814 -2.814 -2.814 -2.814 -2.814 -2.814 -2.814 -2.814 -2.814 
-2.814 -2.814 -2.814 -2.814 -2.814 -2.814 -2.814 -2.814 -2.814 -2.814 -2.814 -2.814 -2.814 -2.814 -2.814 -2.814 -2.814 -2.814 -2.814 -2.814 -2.814 
-2.814 -2.814 -2.814 -2.814 -2.814 -2.814 -2.814 -2.814 -2.814 -2.814 -2.814 -2.814 -2.814 -2.814 -2.814 -2.814 -2.814 -2.814 -2.814 -2.814 -2.814 
-2.814 -2.814 -2.814 -2.814 -2.814 -2.814 -2.814 -2.814 -2.814 -2.814 -2.814 -2.814 -2.814 -2.814 -2.814 -2.814 -2.814 -2.814 -2.814 -2.814 -2.814 
-2.814 -2.814 -2.814 -2.814 -2.814 -2.814 -2.814 -2.814 -2.814 -2.814 -2.814 -2.814 -2.814 -2.814 -2.814 -2.814 -2.814 -2.814 -2.814 -2.814 -2.814 
-2.814 -2.814 -2.814 -2.814 -2.814 -2.814 -2.814 -2.814 -2.814 -2.814 -2.814 -2.814 -2.814 -2.814 -2.814 -2.814 -2.814 -2.814 -2.814 -2.814 -2.814 
-2.814 -2.814 -2.814 -2.814 -2.814 -2.814 -2.814 -2.814 -2.814 -2.814 -2.814 -2.814 -2.814 -2.814 -2.814 -2.814 -2.814 -2.814 -2.814 -2.814 -2.814 
-2.814 -2.814 -2.814 -2.814 -2.814 -2.814 -2.814 -2.814 -2.814 -2.814 -2.814 -2.814 -2.814 -2.814 -2.814 -2.814 -2.814 -2.814 -2.814 -2.814 -2.814 
-2.814 -2.814 -2.814 -2.814 -2.814 -2.814 -2.814 -2.814 -2.814 -2.814 -2.814 -2.814 -2.814 -2.814 -2.814 -2.814 -2.814 -2.814 -2.814 -2.814 -2.814 
-2.814 -2.814 -2.814 -2.814 -2.814 -2.814 -2.814 -2.814 -2.814 -2.814 -2.814 -2.814 -2.814 -2.814 -2.814 -2.814 -2.814 -2.814 -2.814 -2.814 -2.814 
-2.814 -2.814 -2.814 -2.814 -2.814 -2.814 -2.814 -2.814 -2.814 -2.814 -2.814 -2.814 -2.814 -2.814 -2.814 -2.814 -2.814 -2.814 -2.814 -2.814 -2.814 
-2.814 -2.814 -2.814 -2.814 -2.814 -2.814 -2.814 -2.814 -2.814 -2.814 -2.814 -2.814 -2.814 -2.814 -2.814 -2.814 -2.814 -2.814 -2.814 -2.814 -2.814 
-2.814 -2.814 -2.814 -2.814 -2.814 -2.814 -2.814 -2.814 -2.814 -2.814 -2.814 -2.814 -2.814 -2.814 -2.814 -2.814 -2.814 -2.814 -2.814 -2.814 -2.814 
-2.814 -2.814 -2.814 -2.814 -2.814 -2.814 -2.814 -2.814 -2.814 -2.814 -2.814 -2.814 -2.814 -2.814 -2.814 -2.814 -2.814 -2.814 -2.814 -2.814 -2.814 
-2.814 -2.814 -2.814 -2.814 -2.814 -2.814 -2.814 -2.814 -2.814 -2.814 -2.814 -2.814 -2.814 -2.814 -2.814 -2.814 -2.814 -2.814 -2.814 -2.814 -2.814 
-2.814 -2.814 -2.814 -2.814 -2.814 -2.814 -2.814 -2.814 -2.814 -2.814 -2.814 -2.814 -2.814 -2.814 -2.814 -2.814 -2.814 -2.814 -2.814 -2.814 -2.814 
-2.814 -2.814 -2.814 -2.814 -2.814 -2.814 -2.814 -2.814 -2.814 -2.814 -2.814 -2.814 -2.814 -2.814 -2.814 -2.814 -2.814 -2.814 -2.814 -2.814 -2.814 
-2.814 -2.814 -2.814 -2.814 -2.814 -2.814 -2.814 -2.814 -2.814 -2.814 -2.814 -2.814 -2.814 -2.814 -2.814 -2.814 -2.814 -2.814 -2.814 -2.814 -2.814 
-2.814 -2.814 -2.814 -2.814 -2.814 -2.814 -2.814 -2.814 -2.814 -2.814 -2.814 -2.814 -2.814 -2.814 -2.814 -2.814 -2.814 -2.814 -2.814 -2.814 -2.814 
-2.814 -2.814 -2.814 -2.814 -2.814 -2.814 -2.814 -2.814 -2.814 -2.814 -2.814 -2.814 -2.814 -2.814 -2.814 -2.814 -2.814 -2.814 -2.814 -2.814 -2.814 
-2.814 -2.814 -2.814 -2.814 -2.814 -2.814 -2.814 -2.814 -2.814 -2.814 -2.814 -2.814 -2.814 -2.814 -2.814 -2.814 -2.814 -2.814 -2.814 -2.814 -2.814 
-2.814 -2.814 -2.814 -2.814 -2.814 -2.814 -2.814 -2.814 -2.814 -2.814 -2.814 -2.814 -2.814 -2.814 -2.814 -2.814 -2.814 -2.814 -2.814 -2.814 -2.814 
-2.814 -2.814 -2.814 -2.814 -2.814 -2.814 -2.814 -2.814 -2.814 -2.814 -2.814 -2.814 -2.814 -2.814 -2.814 -2.814 -2.814 -2.814 -2.814 -2.814 -2.814 
-2.814 -2.814 -2.814 -2.814 -2.814 -2.814 -2.814 -2.814 -2.814 -2.814 -2.814 -2.814 -2.814 -2.814 -2.814 -2.814 -2.814 -2.814 -2.814 -2.814 -2.814 
-2.814 -2.814 -2.814 -2.814 -2.814 -2.814 -2.814 -2.814 -2.814 -2.814 -2.814 -2.814 -2.814 -2.814 -2.814 -2.814 -2.814 -2.814 -2.814 -2.814 -2.814 
-2.814 -2.814 -2.814 -2.814 -2.814 -2.814 -2.814 -2.814 -2.814 -2.814 -2.814 -2.814 -2.814 -2.814 -2.814 -2.814 -2.814 -2.814 -2.814 -2.814 -2.814 
-2.814 -2.814 -2.814 -2.814 -2.814 -2.814 -2.814 -2.814 -2.814 -2.814 -2.814 -2.814 -2.814 -2.814 -2.814 -2.814 -2.814 -2.814 -2.814 -2.814 -2.814 
-2.814 -2.814 -2.814 -2.814 -2.814 -2.814 -2.814 -2.814 -2.814 -2.814 -2.814 -2.814 -2.814 -2.814 -2.814 -2.814 -2.814 -2.814 -2.814 -2.814 -2.814 
-2.814 -2.814 -2.814 -2.814 -2.814 -2.814 -2.814 -2.814 -2.814 -2.814 -2.814 -2.814 -2.814 -2.814 -2.814 -2.814 -2.814 -2.814 -2.814 -2.814 -2.814 
-2.814 -2.814 -2.814 -2.814 -2.814 -2.814 -2.814 -2.814 -2.814 -2.814 -2.814 -2.814 -2.814 -2.814 -2.814 -2.814 -2.814 -2.814 -2.814 -2.814 -2.814 
-2.814 -2.814 -2.814 -2.814 -2.814 -2.814 -2.814 -2.814 -2.814 -2.814 -2.814 -2.814 -2.814 -2.814 -2.814 -2.814 -2.814 -2.814 -2.814 -2.814 -2.814 
-2.814 -2.814 -2.814 -2.814 -2.814 -2.814 -2.814 -2.814 -2.814 -2.814 -2.814 -2.814 -2.814 -2.814 -2.814 -2.814 -2.814 -2.814 -2.814 -2.814 -2.814 
-2.814 -2.814 -2.814 -2.814 -2.814 -2.814 -2.814 -2.814 -2.814 -2.814 -2.814 -2.814 -2.814 -2.814 -2.814 -2.814 -2.814 -2.814 -2.814 -2.814 -2.814 
-2.814 -2.814 -2.814 -2.814 -2.814 -2.814 -2.814 -2.814 -2.814 -2.814 -2.814 -2.814 -2.814 -2.814 -2.814 -2.814 -2.814 -2.814 -2.814 -2.814 -2.814 
-2.814 -2.814 -2.814 -2.814 -2.814 -2.814 -2.814 -2.814 -2.814 -2.814 -2.814 -2.814 -2.814 -2.814 -2.814 -2.814 -2.814 -2.814 -2.814 -2.814 -2.814 
-2.814 -2.814 -2.814 -2.814 -2.814 -2.814 -2.814 -2.814 -2.814 -2.814 -2.814 -2.814 -2.814 -2.814 -2.814 -2.814 -2.814 -2.814 -2.814 -2.814 -2.814 
</DataArray>
<DataArray Name="ne" NumberOfComponents="1" format="ascii" type="Float64">
0.9982 0.9982 0.9982 0.9982 0.9982 0.9982 0.9982 0.9982 0.9982 0.9982 0.9982 0.9982 0.9982 0.9982 0.9982 0.9982 0.9982 0.9982 0.9982 0.9982 0.9982 
0.9982 0.9982 0.9982 0.9982 0.9982 0.9982 0.9982 0.9982 0.9982 0.9982 0.9982 0.9982 0.9982 0.9982 0.9982 0.9982 0.9982 0.9982 0.9982 0.9982 0.9982 
0.9982 0.9982 0.9982 0.9982 0.9982 0.9982 0.9982 0.9982 0.9982 0.9982 0.9982 0.9982 0.9982 0.9982 0.9982 0.9982 0.9982 0.9982 0.9982 0.9982 0.9982 
0.9982 0.9982 0.9982 0.9982 0.9982 0.9982 0.9982 0.9982 0.9982 0.9982 0.9982 0.9982 0.9982 0.9982 0.9982 0.9982 0.9982 0.9982 0.9982 0.9982 0.9982 
0.9982 0.9982 0.9982 0.9982 0.9982 0.9982 0.9982 0.9982 0.9982 0.9982 0.9982 0.9982 0.9982 0.9982 0.9982 0.9982 0.9982 0.9982 0.9982 0.9982 0.9982 
0.9982 0.9982 0.9982 0.9982 0.9982 0.9982 0.9982 0.9982 0.9982 0.9982 0.9982 0.9982 0.9982 0.9982 0.9982 0.9982 0.9982 0.9982 0.9982 0.9982 0.9982 
0.9982 0.9982 0.9982 0.9982 0.9982 0.9982 0.9982 0.9982 0.9982 0.9982 0.9982 0.9982 0.9982 0.9982 0.9982 0.9982 0.9982 0.9982 0.9982 0.9982 0.9982 
0.9982 0.9982 0.9982 0.9982 0.9982 0.9982 0.9982 0.9982 0.9982 0.9982 0.9982 0.9982 0.9982 0.9982 0.9982 0.9982 0.9982 0.9982 0.9982 0.9982 0.9982 
0.9982 0.9982 0.9982 0.9982 0.9982 0.9982 0.9982 0.9982 0.9982 0.9982 0.9982 0.9982 0.9982 0.9982 0.9982 0.9982 0.9982 0.9982 0.9982 0.9982 0.9982 
0.9982 0.9982 0.9982 0.9982 0.9982 0.9982 0.9982 0.9982 0.9982 0.9982 0.9982 0.9982 0.9982 0.9982 0.9982 0.9982 0.9982 0.9982 0.9982 0.9982 0.9982 
0.9982 0.9982 0.9982 0.9982 0.9982 0.9982 0.9982 0.9982 0.9982 0.9982 0.9982 0.9982 0.9982 0.9982 0.9982 0.9982 0.9982 0.9982 0.9982 0.9982 0.9982 
0.9982 0.9982 0.9982 0.9982 0.9982 0.9982 0.9982 0.9982 0.9982 0.9982 0.9982 0.9982 0.9982 0.9982 0.9982 0.9982 0.9982 0.9982 0.9982 0.9982 0.9982 
0.9982 0.9982 0.9982 0.9982 0.9982 0.9982 0.9982 0.9982 0.9982 0.9982 0.9982 0.9982 0.9982 0.9982 0.9982 0.9982 0.9982 0.9982 0.9982 0.9982 0.9982 
0.9982 0.9982 0.9982 0.9982 0.9982 0.9982 0.9982 0.9982 0.9982 0.9982 0.9982 0.9982 0.9982 0.9982 0.9982 0.9982 0.9982 0.9982 0.9982 0.9982 0.9982 
0.9982 0.9982 0.9982 0.9982 0.9982 0.9982 0.9982 0.9982 0.9982 0.9982 0.9982 0.9982 0.9982 0.9982 0.9982 0.9982 0.9982 0.9982 0.9982 0.9982 0.9982 
0.9982 0.9982 0.9982 0.9982 0.9982 0.9982 0.9982 0.9982 0.9982 0.9982 0.9982 0.9982 0.9982 0.9982 0.9982 0.9982 0.9982 0.9982 0.9982 0.9982 0.9982 
0.9982 0.9982 0.9982 0.9982 0.9982 0.9982 0.9982 0.9982 0.9982 0.9982 0.9982 0.9982 0.9982 0.9982 0.9982 0.9982 0.9982 0.9982 0.9982 0.9982 0.9982 
0.9982 0.9982 0.9982 0.9982 0.9982 0.9982 0.9982 0.9982 0.9982 0.9982 0.9982 0.9982 0.9982 0.9982 0.9982 0.9982 0.9982 0.9982 0.9982 0.9982 0.9982 
0.9982 0.9982 0.9982 0.9982 0.9982 0.9982 0.9982 0.9982 0.9982 0.9982 0.9982 0.9982 0.9982 0.9982 0.9982 0.9982 0.9982 0.9982 0.9982 0.9982 0.9982 
0.9982 0.9982 0.9982 0.9982 0.9982 0.9982 0.9982 0.9982 0.9982 0.9982 0.9982 0.9982 0.9982 0.9982 0.9982 0.9982 0.9982 0.9982 0.9982 0.9982 0.9982 
0.9982 0.9982 0.9982 0.9982 0.9982 0.9982 0.9982 0.9982 0.9982 0.9982 0.9982 0.9982 0.9982 0.9982 0.9982 0.9982 0.9982 0.9982 0.9982 0.9982 0.9982 
0.9982 0.9982 0.9982 0.9982 0.9982 0.9982 0.9982 0.9982 0.9982 0.9982 0.9982 0.9982 0.9982 0.9982 0.9982 0.9982 0.9982 0.9982 0.9982 0.9982 0.9982 
0.9982 0.9982 0.9982 0.9982 0.9982 0.9982 0.9982 0.9982 0.9982 0.9982 0.9982 0.9982 0.9982 0.9982 0.9982 0.9982 0.9982 0.9982 0.9982 0.9982 0.9982 
0.9982 0.9982 0.9982 0.9982 0.9982 0.9982 0.9982 0.9982 0.9982 0.9982 0.9982 0.9982 0.9982 0.9982 0.9982 0.9982 0.9982 0.9982 0.9982 0.9982 0.9982 
0.9982 0.9982 0.9982 0.9982 0.9982 0.9982 0.9982 0.9982 0.9982 0.9982 0.9982 0.9982 0.9982 0.9982 0.9982 0.9982 0.9982 0.9982 0.9982 0.9982 0.9982 
0.9982 0.9982 0.9982 0.9982 0.9982 0.9982 0.9982 0.9982 0.9982 0.9982 0.9982 0.9982 0.9982 0.9982 0.9982 0.9982 0.9982 0.9982 0.9982 0.9982 0.9982 
0.9982 0.9982 0.9982 0.9982 0.9982 0.9982 0.9982 0.9982 0.9982 0.9982 0.9982 0.9982 0.9982 0.9982 0.9982 0.9982 0.9982 0.9982 0.9982 0.9982 0.9982 
0.9982 0.9982 0.9982 0.9982 0.9982 0.9982 0.9982 0.9982 0.9982 0.9982 0.9982 0.9982 0.9982 0.9982 0.9982 0.9982 0.9982 0.9982 0.9982 0.9982 0.9982 
0.9982 0.9982 0.9982 0.9982 0.9982 0.9982 0.9982 0.9982 0.9982 0.9982 0.9982 0.9982 0.9982 0.9982 0.9982 0.9982 0.9982 0.9982 0.9982 0.9982 0.9982 
0.9982 0.9982 0.9982 0.9982 0.9982 0.9982 0.9982 0.9982 0.9982 0.9982 0.9982 0.9982 0.9982 0.9982 0.9982 0.9982 0.9982 0.9982 0.9982 0.9982 0.9982 
0.9982 0.9982 0.9982 0.9982 0.9982 0.9982 0.9982 0.9982 0.9982 0.9982 0.9982 0.9982 0.9982 0.9982 0.9982 0.9982 0.9982 0.9982 0.9982 0.9982 0.9982 
0.9982 0.9982 0.9982 0.9982 0.9982 0.9982 0.9982 0.9982 0.9982 0.9982 0.9982 0.9982 0.9982 0.9982 0.9982 0.9982 0.9982 0.9982 0.9982 0.9982 0.9982 
0.9982 0.9982 0.9982 0.9982 0.9982 0.9982 0.9982 0.9982 0.9982 0.9982 0.9982 0.9982 0.9982 0.9982 0.9982 0.9982 0.9982 0.9982 0.9982 0.9982 0.9982 
0.9982 0.9982 0.9982 0.9982 0.9982 0.9982 0.9982 0.9982 0.9982 0.9982 0.9982 0.9982 0.9982 0.9982 0.9982 0.9982 0.9982 0.9982 0.9982 0.9982 0.9982 
0.9982 0.9982 0.9982 0.9982 0.9982 0.9982 0.9982 0.9982 0.9982 0.9982 0.9982 0.9982 0.9982 0.9982 0.9982 0.9982 0.9982 0.9982 0.9982 0.9982 0.9982 
0.9982 0.9982 0.9982 0.9982 0.9982 0.9982 0.9982 0.9982 0.9982 0.9982 0.9982 0.9982 0.9982 0.9982 0.9982 0.9982 0.9982 0.9982 0.9982 0.9982 0.9982 
0.9982 0.9982 0.9982 0.9982 0.9982 0.9982 0.9982 0.9982 0.9982 0.9982 0.9982 0.9982 0.9982 0.9982 0.9982 0.9982 0.9982 0.9982 0.9982 0.9982 0.9982 
0.9982 0.9982 0.9982 0.9982 0.9982 0.9982 0.9982 0.9982 0.9982 0.9982 0.9982 0.9982 0.9982 0.9982 0.9982 0.9982 0.9982 0.9982 0.9982 0.9982 0.9982 
0.9982 0.9982 0.9982 0.9982 0.9982 0.9982 0.9982 0.9982 0.9982 0.9982 0.9982 0.9982 0.9982 0.9982 0.9982 0.9982 0.9982 0.9982 0.9982 0.9982 0.9982 
0.9982 0.9982 0.9982 0.9982 0.9982 0.9982 0.9982 0.9982 0.9982 0.9982 0.9982 0.9982 0.9982 0.9982 0.9982 0.9982 0.9982 0.9982 0.9982 0.9982 0.9982 
0.9982 0.9982 0.9982 0.9982 0.9982 0.9982 0.9982 0.9982 0.9982 0.9982 0.9982 0.9982 0.9982 0.9982 0.9982 0.9982 0.9982 0.9982 0.9982 0.9982 0.9982 
</DataArray>
</PointData>
</Piece>
</ImageData>
</VTKFile>
