<VTKFile type="ImageData">
<ImageData Origin="0 -10 0" Spacing="0.5 0.5 1" WholeExtent="0 20 0 40 0 0">
<Piece Extent="0 20 0 40 0 0">
<PointData>
<DataArray Name="f" NumberOfComponents="1" format="ascii" type="Float64">
9.638e-06 9.638e-06 9.638e-06 9.638e-06 9.638e-06 9.638e-06 9.638e-06 9.638e-06 9.638e-06 9.638e-06 9.638e-06 9.638e-06 9.638e-06 9.638e-06 9.638e-06 9.638e-06 9.638e-06 9.638e-06 9.638e-06 9.638e-06 9.638e-06 
4.49e-06 4.49e-06 4.49e-06 4.49e-06 4.49e-06 4.49e-06 4.49e-06 4.49e-06 4.49e-06 4.49e-06 4.49e-06 4.49e-06 4.49e-06 4.49e-06 4.49e-06 4.49e-06 4.49e-06 4.49e-06 4.49e-06 4.49e-06 4.49e-06 
5.293e-06 5.293e-06 5.293e-06 5.293e-06 5.293e-06 5.293e-06 5.293e-06 5.293e-06 5.293e-06 5.293e-06 5.293e-06 5.293e-06 5.293e-06 5.293e-06 5.293e-06 5.293e-06 5.293e-06 5.293e-06 5.293e-06 5.293e-06 5.293e-06 
1.258e-05 1.258e-05 1.258e-05 1.258e-05 1.258e-05 1.258e-05 1.258e-05 1.258e-05 1.258e-05 1.258e-05 1.258e-05 1.258e-05 1.258e-05 1.258e-05 1.258e-05 1.258e-05 1.258e-05 1.258e-05 1.258e-05 1.258e-05 1.258e-05 
3.302e-05 3.302e-05 3.302e-05 3.302e-05 3.302e-05 3.302e-05 3.302e-05 3.302e-05 3.302e-05 3.302e-05 3.302e-05 3.302e-05 3.302e-05 3.302e-05 3.302e-05 3.302e-05 3.302e-05 3.302e-05 3.302e-05 3.302e-05 3.302e-05 
8.357e-05 8.357e-05 8.357e-05 8.357e-05 8.357e-05 8.357e-05 8.357e-05 8.357e-05 8.357e-05 8.357e-05 8.357e-05 8.357e-05 8.357e-05 8.357e-05 8.357e-05 8.357e-05 8.357e-05 8.357e-05 8.357e-05 8.357e-05 8.357e-05 
0.0002008 0.0002008 0.0002008 0.0002008 0.0002008 0.0002008 0.0002008 0.0002008 0.0002008 0.0002008 0.0002008 0.0002008 0.0002008 0.0002008 0.0002008 0.0002008 0.0002008 0.0002008 0.0002008 0.0002008 0.0002008 
0.0004574 0.0004574 0.0004574 0.0004574 0.0004574 0.0004574 0.0004574 0.0004574 0.0004574 0.0004574 0.0004574 0.0004574 0.0004574 0.0004574 0.0004574 0.0004574 0.0004574 0.0004574 0.0004574 0.0004574 0.0004574 
0.0009878 0.0009878 0.0009878 0.0009878 0.0009878 0.0009878 0.0009878 0.0009878 0.0009878 0.0009878 0.0009878 0.0009878 0.0009878 0.0009878 0.0009878 0.0009878 0.0009878 0.0009878 0.0009878 0.0009878 0.0009878 
0.002023 0.002023 0.002023 0.002023 0.002023 0.002023 0.002023 0.002023 0.002023 0.002023 0.002023 0.002023 0.002023 0.002023 0.002023 0.002023 0.002023 0.002023 0.002023 0.002023 0.002023 
0.003928 0.003928 0.003928 0.003928 0.003928 0.003928 0.003928 0.003928 0.003928 0.003928 0.003928 0.003928 0.003928 0.003928 0.003928 0.003928 0.003928 0.003928 0.003928 0.003928 0.003928 
0.007234 0.007234 0.007234 0.007234 0.007234 0.007234 0.007234 0.007234 0.007234 0.007234 0.007234 0.007234 0.007234 0.007234 0.007234 0.007234 0.007234 0.007234 0.007234 0.007234 0.007234 
0.01264 0.01264 0.01264 0.01264 0.01264 0.01264 0.01264 0.01264 0.01264 0.01264 0.01264 0.01264 0.01264 0.01264 0.01264 0.01264 0.01264 0.01264 0.01264 0.01264 0.01264 
0.02095 0.02095 0.02095 0.02095 0.02095 0.02095 0.02095 0.02095 0.02095 0.02095 0.02095 0.02095 0.02095 0.02095 0.02095 0.02095 0.02095 0.02095 0.02095 0.02095 0.02095 
0.03293 0.03293 0.03293 0.03293 0.03293 0.03293 0.03293 0.03293 0.03293 0.03293 0.03293 0.03293 0.03293 0.03293 0.03293 0.03293 0.03293 0.03293 0.03293 0.03293 0.03293 
0.04913 0.04913 0.04913 0.04913 0.04913 0.04913 0.04913 0.04913 0.04913 0.04913 0.04913 0.04913 0.04913 0.04913 0.04913 0.04913 0.04913 0.04913 0.04913 0.04913 0.04913 
0.06952 0.06952 0.06952 0.06952 0.06952 0.06952 0.06952 0.06952 0.06952 0.06952 0.06952 0.06952 0.06952 0.06952 0.06952 0.06952 0.06952 0.06952 0.06952 0.06952 0.06952 
0.09334 0.09334 0.09334 0.09334 0.09334 0.09334 0.09334 0.09334 0.09334 0.09334 0.09334 0.09334 0.09334 0.09334 0.09334 0.09334 0.09334 0.09334 0.09334 0.09334 0.09334 
0.1189 0.1189 0.1189 0.1189 0.1189 0.1189 0.1189 0.1189 0.1189 0.1189 0.1189 0.1189 0.1189 0.1189 0.1189 0.1189 0.1189 0.1189 0.1189 0.1189 0.1189 
0.1436 0.1436 0.1436 0.1436 0.1436 0.1436 0.1436 0.1436 0.1436 0.1436 0.1436 0.1436 0.1436 0.1436 0.1436 0.1436 0.1436 0.1436 0.1436 0.1436 0.1436 
0.1646 0.1646 0.1646 0.1646 0.1646 0.1646 0.1646 0.1646 0.1646 0.1646 0.1646 0.1646 0.1646 0.1646 0.1646 0.1646 0.1646 0.1646 0.1646 0.1646 0.1646 
0.1789 0.1789 0.1789 0.1789 0.1789 0.1789 0.1789 0.1789 0.1789 0.1789 0.1789 0.1789 0.1789 0.1789 0.1789 0.1789 0.1789 0.1789 0.1789 0.1789 0.1789 
0.1844 0.1844 0.1844 0.1844 0.1844 0.1844 0.1844 0.1844 0.1844 0.1844 0.1844 0.1844 0.1844 0.1844 0.1844 0.1844 0.1844 0.1844 0.1844 0.1844 0.1844 
0.1802 0.1802 0.1802 0.1802 0.1802 0.1802 0.1802 0.1802 0.1802 0.1802 0.1802 0.1802 0.1802 0.1802 0.1802 0.1802 0.1802 0.1802 0.1802 0.1802 0.1802 
0.1669 0.1669 0.1669 0.1669 0.1669 0.1669 0.1669 0.1669 0.1669 0.1669 0.1669 0.1669 0.1669 0.1669 0.1669 0.1669 0.1669 0.1669 0.1669 0.1669 0.1669 
0.1465 0.1465 0.1465 0.1465 0.1465 0.1465 0.1465 0.1465 0.1465 0.1465 0.1465 0.1465 0.1465 0.1465 0.1465 0.1465 0.1465 0.1465 0.1465 0.1465 0.1465 
0.1218 0.1218 0.1218 0.1218 0.1218 0.1218 0.1218 0.1218 0.1218 0.1218 0.1218 0.1218 0.1218 0.1218 0.1218 0.1218 0.1218 0.1218 0.1218 0.1218 0.1218 
0.09599 0.09599 0.09599 0.09599 0.09599 0.09599 0.09599 0.09599 0.09599 0.09599 0.09599 0.09599 0.09599 0.09599 0.09599 0.09599 0.09599 0.09599 0.09599 0.09599 0.09599 
0.07162 0.07162 0.07162 0.07162 0.07162 0.07162 0.07162 0.07162 0.07162 0.07162 0.07162 0.07162 0.07162 0.07162 0.07162 0.07162 0.07162 0.07162 0.07162 0.07162 0.07162 
0.05058 0.05058 0.05058 0.05058 0.05058 0.05058 0.05058 0.05058 0.05058 0.05058 0.05058 0.05058 0.05058 0.05058 0.05058 0.05058 0.05058 0.05058 0.05058 0.05058 0.05058 
0.03381 0.03381 0.03381 0.03381 0.03381 0.03381 0.03381 0.03381 0.03381 0.03381 0.03381 0.03381 0.03381 0.03381 0.03381 0.03381 0.03381 0.03381 0.03381 0.03381 0.03381 
0.02138 0.02138 0.02138 0.02138 0.02138 0.02138 0.02138 0.02138 0.02138 0.02138 0.02138 0.02138 0.02138 0.02138 0.02138 0.02138 0.02138 0.02138 0.02138 0.02138 0.02138 
0.01278 0.01278 0.01278 0.01278 0.01278 0.01278 0.01278 0.01278 0.01278 0.01278 0.01278 0.01278 0.01278 0.01278 0.01278 0.01278 0.01278 0.01278 0.01278 0.01278 0.01278 
0.007222 0.007222 0.007222 0.007222 0.007222 0.007222 0.007222 0.007222 0.007222 0.007222 0.007222 0.007222 0.007222 0.007222 0.007222 0.007222 0.007222 0.007222 0.007222 0.007222 0.007222 
0.003855 0.003855 0.003855 0.003855 0.003855 0.003855 0.003855 0.003855 0.003855 0.003855 0.003855 0.003855 0.003855 0.003855 0.003855 0.003855 0.003855 0.003855 0.003855 0.003855 0.003855 
0.001943 0.001943 0.001943 0.001943 0.001943 0.001943 0.001943 0.001943 0.001943 0.001943 0.001943 0.001943 0.001943 0.001943 0.001943 0.001943 0.001943 0.001943 0.001943 0.001943 0.001943 
0.0009238 0.0009238 0.0009238 0.0009238 0.0009238 0.0009238 0.0009238 0.0009238 0.0009238 0.0009238 0.0009238 0.0009238 0.0009238 0.0009238 0.0009238 0.0009238 0.0009238 0.0009238 0.0009238 0.0009238 0.0009238 
0.0004142 0.0004142 0.0004142 0.0004142 0.0004142 0.0004142 0.0004142 0.0004142 0.0004142 0.0004142 0.0004142 0.0004142 0.0004142 0.0004142 0.0004142 0.0004142 0.0004142 0.0004142 0.0004142 0.0004142 0.0004142 
0.000175 0.000175 0.000175 0.000175 0.000175 0.000175 0.0001751 0.0001751 0.0001751 0.0001751 0.0001751 0.0001751 0.0001751 0.0001751 0.0001751 0.000175 0.000175 0.000175 0.000175 0.000175 0.000175 
6.969e-05 6.968e-05 6.968e-05 6.968e-05 6.968e-05 6.969e-05 6.969e-05 6.969e-05 6.969e-05 6.969e-05 6.969e-05 6.969e-05 6.969e-05 6.969e-05 6.969e-05 6.969e-05 6.969e-05 6.969e-05 6.969e-05 6.969e-05 6.969e-05 
2.621e-05 2.621e-05 2.621e-05 2.621e-05 2.621e-05 2.621e-05 2.621e-05 2.621e-05 2.621e-05 2.621e-05 2.621e-05 2.621e-05 2.621e-05 2.621e-05 2.621e-05 2.621e-05 2.621e-05 2.621e-05 2.621e-05 2.621e-05 2.621e-05 
</DataArray>
<DataArray Name="E" NumberOfComponents="1" format="ascii" type="Float64">
-1.455 -1.455 -1.455 -1.455 -1.455 -1.455 -1.455 -1.455 -1.455 -1.455 -1.455 -1.455 -1.455 -1.455 -1.455 -1.455 -1.455 -1.455 -1.455 -1.455 -1.455 
-1.455 -1.455 -1.455 -1.455 -1.455 -1.455 -1.455 -1.455 -1.455 -1.455 -1.455 -1.455 -1.455 -1.455 -1.455 -1.455 -1.455 -1.455 -1.455 -1.455 -1.455 
-1.455 -1.455 -1.455 -1.455 -1.455 -1.455 -1.455 -1.455 -1.455 -1.455 -1.455 -1.455 -1.455 -1.455 -1.455 -1.455 -1.455 -1.455 -1.455 -1.455 -1.455 
-1.455 -1.455 -1.455 -1.455 -1.455 -1.455 -1.455 -1.455 -1.455 -1.455 -1.455 -1.455 -1.455 -1.455 -1.455 -1.455 -1.455 -1.455 -1.455 -1.455 -1.455 
-1.455 -1.455 -1.455 -1.455 -1.455 -1.455 -1.455 -1.455 -1.455 -1.455 -1.455 -1.455 -1.455 -1.455 -1.455 -1.455 -1.455 -1.455 -1.455 -1.455 -1.455 
-1.455 -1.455 -1.455 -1.455 -1.455 -1.455 -1.455 -1.455 -1.455 -1.455 -1.455 -1.455 -1.455 -1.455 -1.455 -1.455 -1.455 -1.455 -1.455 -1.455 -1.455 
-1.455 -1.455 -1.455 -1.455 -1.455 -1.455 -1.455 -1.455 -1.455 -1.455 -1.455 -1.455 -1.455 -1.455 -1.455 -1.455 -1.455 -1.455 -1.455 -1.455 -1.455 
-1.455 -1.455 -1.455 -1.455 -1.455 -1.455 -1.455 -1.455 -1.455 -1.455 -1.455 -1.455 -1.455 -1.455 -1.455 -1.455 -1.455 -1.455 -1.455 -1.455 -1.455 
-1.455 -1.455 -1.455 -1.455 -1.455 -1.455 -1.455 -1.455 -1.455 -1.455 -1.455 -1.455 -1.455 -1.455 -1.455 -1.455 -1.455 -1.455 -1.455 -1.455 -1.455 
-1.455 -1.455 -1.455 -1.455 -1.455 -1.455 -1.455 -1.455 -1.455 -1.455 -1.455 -1.455 -1.455 -1.455 -1.455 -1.455 -1.455 -1.455 -1.455 -1.455 -1.455 
-1.455 -1.455 -1.455 -1.455 -1.455 -1.455 -1.455 -1.455 -1.455 -1.455 -1.455 -1.455 -1.455 -1.455 -1.455 -1.455 -1.455 -1.455 -1.455 -1.455 -1.455 
-1.455 -1.455 -1.455 -1.455 -1.455 -1.455 -1.455 -1.455 -1.455 -1.455 -1.455 -1.455 -1.455 -1.455 -1.455 -1.455 -1.455 -1.455 -1.455 -1.455 -1.455 
-1.455 -1.455 -1.455 -1.455 -1.455 -1.455 -1.455 -1.455 -1.455 -1.455 -1.455 -1.455 -1.455 -1.455 -1.455 -1.455 -1.455 -1.455 -1.455 -1.455 -1.455 
-1.455 -1.455 -1.455 -1.455 -1.455 -1.455 -1.455 -1.455 -1.455 -1.455 -1.455 -1.455 -1.455 -1.455 -1.455 -1.455 -1.455 -1.455 -1.455 -1.455 -1.455 
-1.455 -1.455 -1.455 -1.455 -1.455 -1.455 -1.455 -1.455 -1.455 -1.455 -1.455 -1.455 -1.455 -1.455 -1.455 -1.455 -1.455 -1.455 -1.455 -1.455 -1.455 
-1.455 -1.455 -1.455 -1.455 -1.455 -1.455 -1.455 -1.455 -1.455 -1.455 -1.455 -1.455 -1.455 -1.455 -1.455 -1.455 -1.455 -1.455 -1.455 -1.455 -1.455 
-1.455 -1.455 -1.455 -1.455 -1.455 -1.455 -1.455 -1.455 -1.455 -1.455 -1.455 -1.455 -1.455 -1.455 -1.455 -1.455 -1.455 -1.455 -1.455 -1.455 -1.455 
-1.455 -1.455 -1.455 -1.455 -1.455 -1.455 -1.455 -1.455 -1.455 -1.455 -1.455 -1.455 -1.455 -1.455 -1.455 -1.455 -1.455 -1.455 -1.455 -1.455 -1.455 
-1.455 -1.455 -1.455 -1.455 -1.455 -1.455 -1.455 -1.455 -1.455 -1.455 -1.455 -1.455 -1.455 -1.455 -1.455 -1.455 -1.455 -1.455 -1.455 -1.455 -1.455 
-1.455 -1.455 -1.455 -1.455 -1.455 -1.455 -1.455 -1.455 -1.455 -1.455 -1.455 -1.455 -1.455 -1.455 -1.455 -1.455 -1.455 -1.455 -1.455 -1.455 -1.455 
-1.455 -1.455 -1.455 -1.455 -1.455 -1.455 -1.455 -1.455 -1.455 -1.455 -1.455 -1.455 -1.455 -1.455 -1.455 -1.455 -1.455 -1.455 -1.455 -1.455 -1.455 
-1.455 -1.455 -1.455 -1.455 -1.455 -1.455 -1.455 -1.455 -1.455 -1.455 -1.455 -1.455 -1.455 -1.455 -1.455 -1.455 -1.455 -1.455 -1.455 -1.455 -1.455 
-1.455 -1.455 -1.455 -1.455 -1.455 -1.455 -1.455 -1.455 -1.455 -1.455 -1.455 -1.455 -1.455 -1.455 -1.455 -1.455 -1.455 -1.455 -1.455 -1.455 -1.455 
-1.455 -1.455 -1.455 -1.455 -1.455 -1.455 -1.455 -1.455 -1.455 -1.455 -1.455 -1.455 -1.455 -1.455 -1.455 -1.455 -1.455 -1.455 -1.455 -1.455 -1.455 
-1.455 -1.455 -1.455 -1.455 -1.455 -1.455 -1.455 -1.455 -1.455 -1.455 -1.455 -1.455 -1.455 -1.455 -1.455 -1.455 -1.455 -1.455 -1.455 -1.455 -1.455 
-1.455 -1.455 -1.455 -1.455 -1.455 -1.455 -1.455 -1.455 -1.455 -1.455 -1.455 -1.455 -1.455 -1.455 -1.455 -1.455 -1.455 -1.455 -1.455 -1.455 -1.455 
-1.455 -1.455 -1.455 -1.455 -1.455 -1.455 -1.455 -1.455 -1.455 -1.455 -1.455 -1.455 -1.455 -1.455 -1.455 -1.455 -1.455 -1.455 -1.455 -1.455 -1.455 
-1.455 -1.455 -1.455 -1.455 -1.455 -1.455 -1.455 -1.455 -1.455 -1.455 -1.455 -1.455 -1.455 -1.455 -1.455 -1.455 -1.455 -1.455 -1.455 -1.455 -1.455 
-1.455 -1.455 -1.455 -1.455 -1.455 -1.455 -1.455 -1.455 -1.455 -1.455 -1.455 -1.455 -1.455 -1.455 -1.455 -1.455 -1.455 -1.455 -1.455 -1.455 -1.455 
-1.455 -1.455 -1.455 -1.455 -1.455 -1.455 -1.455 -1.455 -1.455 -1.455 -1.455 -1.455 -1.455 -1.455 -1.455 -1.455 -1.455 -1.455 -1.455 -1.455 -1.455 
-1.455 -1.455 -1.455 -1.455 -1.455 -1.455 -1.455 -1.455 -1.455 -1.455 -1.455 -1.455 -1.455 -1.455 -1.455 -1.455 -1.455 -1.455 -1.455 -1.455 -1.455 
-1.455 -1.455 -1.455 -1.455 -1.455 -1.455 -1.455 -1.455 -1.455 -1.455 -1.455 -1.455 -1.455 -1.455 -1.455 -1.455 -1.455 -1.455 -1.455 -1.455 -1.455 
-1.455 -1.455 -1.455 -1.455 -1.455 -1.455 -1.455 -1.455 -1.455 -1.455 -1.455 -1.455 -1.455 -1.455 -1.455 -1.455 -1.455 -1.455 -1.455 -1.455 -1.455 
-1.455 -1.455 -1.455 -1.455 -1.455 -1.455 -1.455 -1.455 -1.455 -1.455 -1.455 -1.455 -1.455 -1.455 -1.455 -1.455 -1.455 -1.455 -1.455 -1.455 -1.455 
-1.455 -1.455 -1.455 -1.455 -1.455 -1.455 -1.455 -1.455 -1.455 -1.455 -1.455 -1.455 -1.455 -1.455 -1.455 -1.455 -1.455 -1.455 -1.455 -1.455 -1.455 
-1.455 -1.455 -1.455 -1.455 -1.455 -1.455 -1.455 -1.455 -1.455 -1.455 -1.455 -1.455 -1.455 -1.455 -1.455 -1.455 -1.455 -1.455 -1.455 -1.455 -1.455 
-1.455 -1.455 -1.455 -1.455 -1.455 -1.455 -1.455 -1.455 -1.455 -1.455 -1.455 -1.455 -1.455 -1.455 -1.455 -1.455 -1.455 -1.455 -1.455 -1.455 -1.455 
-1.455 -1.455 -1.455 -1.455 -1.455 -1.455 -1.455 -1.455 -1.455 -1.455 -1.455 -1.455 -1.455 -1.455 -1.455 -1.455 -1.455 -1.455 -1.455 -1.455 -1.455 
-1.455 -1.455 -1.455 -1.455 -1.455 -1.455 -1.455 -1.455 -1.455 -1.455 -1.455 -1.455 -1.455 -1.455 -1.455 -1.455 -1.455 -1.455 -1.455 -1.455 -1.455 
-1.455 -1.455 -1.455 -1.455 -1.455 -1.455 -1.455 -1.455 -1.455 -1.455 -1.455 -1.455 -1.455 -1.455 -1.455 -1.455 -1.455 -1.455 -1.455 -1.455 -1.455 
-1.455 -1.455 -1.455 -1.455 -1.455 -1.455 -1.455 -1.455 -1.455 -1.455 -1.455 -1.455 -1.455 -1.455 -1.455 -1.455 -1.455 -1.455 -1.455 -1.455 -1.455 
</DataArray>
<DataArray Name="ne" NumberOfComponents="1" format="ascii" type="Float64">
1 1 1 1 1 1 1 1 1 1 1 1 1 1 1 1 1 1 1 1 1 
1 1 1 1 1 1 1 1 1 1 1 1 1 1 1 1 1 1 1 1 1 
1 1 1 1 1 1 1 1 1 1 1 1 1 1 1 1 1 1 1 1 1 
1 1 1 1 1 1 1 1 1 1 1 1 1 1 1 1 1 1 1 1 1 
1 1 1 1 1 1 1 1 1 1 1 1 1 1 1 1 1 1 1 1 1 
1 1 1 1 1 1 1 1 1 1 1 1 1 1 1 1 1 1 1 1 1 
1 1 1 1 1 1 1 1 1 1 1 1 1 1 1 1 1 1 1 1 1 
1 1 1 1 1 1 1 1 1 1 1 1 1 1 1 1 1 1 1 1 1 
1 1 1 1 1 1 1 1 1 1 1 1 1 1 1 1 1 1 1 1 1 
1 1 1 1 1 1 1 1 1 1 1 1 1 1 1 1 1 1 1 1 1 
1 1 1 1 1 1 1 1 1 1 1 1 1 1 1 1 1 1 1 1 1 
1 1 1 1 1 1 1 1 1 1 1 1 1 1 1 1 1 1 1 1 1 
1 1 1 1 1 1 1 1 1 1 1 1 1 1 1 1 1 1 1 1 1 
1 1 1 1 1 1 1 1 1 1 1 1 1 1 1 1 1 1 1 1 1 
1 1 1 1 1 1 1 1 1 1 1 1 1 1 1 1 1 1 1 1 1 
1 1 1 1 1 1 1 1 1 1 1 1 1 1 1 1 1 1 1 1 1 
1 1 1 1 1 1 1 1 1 1 1 1 1 1 1 1 1 1 1 1 1 
1 1 1 1 1 1 1 1 1 1 1 1 1 1 1 1 1 1 1 1 1 
1 1 1 1 1 1 1 1 1 1 1 1 1 1 1 1 1 1 1 1 1 
1 1 1 1 1 1 1 1 1 1 1 1 1 1 1 1 1 1 1 1 1 
1 1 1 1 1 1 1 1 1 1 1 1 1 1 1 1 1 1 1 1 1 
1 1 1 1 1 1 1 1 1 1 1 1 1 1 1 1 1 1 1 1 1 
1 1 1 1 1 1 1 1 1 1 1 1 1 1 1 1 1 1 1 1 1 
1 1 1 1 1 1 1 1 1 1 1 1 1 1 1 1 1 1 1 1 1 
1 1 1 1 1 1 1 1 1 1 1 1 1 1 1 1 1 1 1 1 1 
1 1 1 1 1 1 1 1 1 1 1 1 1 1 1 1 1 1 1 1 1 
1 1 1 1 1 1 1 1 1 1 1 1 1 1 1 1 1 1 1 1 1 
1 1 1 1 1 1 1 1 1 1 1 1 1 1 1 1 1 1 1 1 1 
1 1 1 1 1 1 1 1 1 1 1 1 1 1 1 1 1 1 1 1 1 
1 1 1 1 1 1 1 1 1 1 1 1 1 1 1 1 1 1 1 1 1 
1 1 1 1 1 1 1 1 1 1 1 1 1 1 1 1 1 1 1 1 1 
1 1 1 1 1 1 1 1 1 1 1 1 1 1 1 1 1 1 1 1 1 
1 1 1 1 1 1 1 1 1 1 1 1 1 1 1 1 1 1 1 1 1 
1 1 1 1 1 1 1 1 1 1 1 1 1 1 1 1 1 1 1 1 1 
1 1 1 1 1 1 1 1 1 1 1 1 1 1 1 1 1 1 1 1 1 
1 1 1 1 1 1 1 1 1 1 1 1 1 1 1 1 1 1 1 1 1 
1 1 1 1 1 1 1 1 1 1 1 1 1 1 1 1 1 1 1 1 1 
1 1 1 1 1 1 1 1 1 1 1 1 1 1 1 1 1 1 1 1 1 
1 1 1 1 1 1 1 1 1 1 1 1 1 1 1 1 1 1 1 1 1 
1 1 1 1 1 1 1 1 1 1 1 1 1 1 1 1 1 1 1 1 1 
1 1 1 1 1 1 1 1 1 1 1 1 1 1 1 1 1 1 1 1 1 
</DataArray>
</PointData>
</Piece>
</ImageData>
</VTKFile>
