<VTKFile type="ImageData">
<ImageData Origin="0 -10 0" Spacing="0.5 0.5 1" WholeExtent="0 20 0 40 0 0">
<Piece Extent="0 20 0 40 0 0">
<PointData>
<DataArray Name="f" NumberOfComponents="1" format="ascii" type="Float64">
7.178e-05 7.178e-05 7.178e-05 7.178e-05 7.178e-05 7.178e-05 7.178e-05 7.178e-05 7.178e-05 7.178e-05 7.178e-05 7.178e-05 7.178e-05 7.178e-05 7.178e-05 7.178e-05 7.178e-05 7.178e-05 7.178e-05 7.178e-05 7.178e-05 
0.0001908 0.0001908 0.0001908 0.0001908 0.0001908 0.0001908 0.0001908 0.0001908 0.0001908 0.0001908 0.0001908 0.0001908 0.0001908 0.0001908 0.0001908 0.0001908 0.0001908 0.0001908 0.0001908 0.0001908 0.0001908 
0.0004764 0.0004763 0.0004763 0.0004763 0.0004763 0.0004763 0.0004763 0.0004763 0.0004763 0.0004763 0.0004763 0.0004763 0.0004763 0.0004763 0.0004763 0.0004763 0.0004763 0.0004763 0.0004763 0.0004763 0.0004764 
0.001116 0.001116 0.001116 0.001116 0.001116 0.001116 0.001116 0.001116 0.001116 0.001116 0.001116 0.001116 0.001116 0.001116 0.001116 0.001116 0.001116 0.001116 0.001116 0.001116 0.001116 
0.002456 0.002456 0.002456 0.002456 0.002456 0.002456 0.002456 0.002456 0.002456 0.002456 0.002456 0.002456 0.002456 0.002456 0.002456 0.002456 0.002456 0.002456 0.002456 0.002456 0.002456 
0.005072 0.005072 0.005072 0.005072 0.005072 0.005072 0.005072 0.005072 0.005072 0.005072 0.005072 0.005072 0.005072 0.005072 0.005072 0.005072 0.005072 0.005072 0.005072 0.005072 0.005072 
0.00983 0.00983 0.00983 0.00983 0.009831 0.009831 0.009831 0.00983 0.00983 0.00983 0.00983 0.00983 0.00983 0.00983 0.00983 0.00983 0.00983 0.00983 0.00983 0.00983 0.00983 
0.01788 0.01788 0.01788 0.01788 0.01788 0.01788 0.01788 0.01788 0.01788 0.01788 0.01788 0.01788 0.01788 0.01788 0.01788 0.01788 0.01788 0.01788 0.01788 0.01788 0.01788 
0.0305 0.0305 0.0305 0.0305 0.0305 0.0305 0.0305 0.0305 0.0305 0.0305 0.0305 0.0305 0.0305 0.0305 0.0305 0.0305 0.0305 0.0305 0.0305 0.0305 0.0305 
0.0488 0.0488 0.0488 0.0488 0.0488 0.0488 0.0488 0.0488 0.0488 0.0488 0.0488 0.0488 0.0488 0.0488 0.0488 0.0488 0.0488 0.0488 0.0488 0.0488 0.0488 
0.07318 0.07318 0.07318 0.07318 0.07318 0.07318 0.07318 0.07318 0.07318 0.07318 0.07318 0.07318 0.07318 0.07318 0.07318 0.07318 0.07318 0.07318 0.07318 0.07318 0.07318 
0.1028 0.1028 0.1028 0.1028 0.1028 0.1028 0.1028 0.1028 0.1028 0.1028 0.1028 0.1028 0.1028 0.1028 0.1028 0.1028 0.1028 0.1028 0.1028 0.1028 0.1028 
0.1353 0.1353 0.1353 0.1353 0.1353 0.1353 0.1353 0.1353 0.1353 0.1353 0.1353 0.1353 0.1353 0.1353 0.1353 0.1353 0.1353 0.1353 0.1353 0.1353 0.1353 
0.1666 0.1666 0.1666 0.1666 0.1666 0.1666 0.1666 0.1666 0.1666 0.1666 0.1666 0.1666 0.1666 0.1666 0.1666 0.1666 0.1666 0.1666 0.1666 0.1666 0.1666 
0.192 0.192 0.192 0.192 0.192 0.192 0.192 0.192 0.192 0.192 0.192 0.192 0.192 0.192 0.192 0.192 0.192 0.192 0.192 0.192 0.192 
0.2067 0.2067 0.2067 0.2067 0.2067 0.2067 0.2067 0.2067 0.2067 0.2067 0.2067 0.2067 0.2067 0.2067 0.2067 0.2067 0.2067 0.2067 0.2067 0.2067 0.2067 
0.208 0.208 0.208 0.208 0.208 0.208 0.208 0.208 0.208 0.208 0.208 0.208 0.208 0.208 0.208 0.208 0.208 0.208 0.208 0.208 0.208 
0.1953 0.1953 0.1953 0.1953 0.1953 0.1953 0.1953 0.1953 0.1953 0.1953 0.1953 0.1953 0.1953 0.1953 0.1953 0.1953 0.1953 0.1953 0.1953 0.1953 0.1953 
0.171 0.171 0.171 0.171 0.171 0.171 0.171 0.171 0.171 0.171 0.171 0.171 0.171 0.171 0.171 0.171 0.171 0.171 0.171 0.171 0.171 
0.1395 0.1395 0.1395 0.1395 0.1395 0.1395 0.1395 0.1395 0.1395 0.1395 0.1395 0.1395 0.1395 0.1395 0.1395 0.1395 0.1395 0.1395 0.1395 0.1395 0.1395 
0.106 0.106 0.106 0.106 0.106 0.106 0.106 0.106 0.106 0.106 0.106 0.106 0.106 0.106 0.106 0.106 0.106 0.106 0.106 0.106 0.106 
0.0749 0.0749 0.0749 0.0749 0.0749 0.0749 0.0749 0.0749 0.0749 0.0749 0.0749 0.0749 0.0749 0.0749 0.0749 0.0749 0.0749 0.0749 0.0749 0.0749 0.0749 
0.04917 0.04917 0.04917 0.04917 0.04917 0.04917 0.04917 0.04917 0.04917 0.04917 0.04917 0.04917 0.04917 0.04917 0.04917 0.04917 0.04917 0.04917 0.04917 0.04917 0.04917 
0.02996 0.02996 0.02996 0.02996 0.02996 0.02996 0.02996 0.02996 0.02996 0.02996 0.02996 0.02996 0.02996 0.02996 0.02996 0.02996 0.02996 0.02996 0.02996 0.02996 0.02996 
0.01692 0.01692 0.01692 0.01692 0.01692 0.01692 0.01692 0.01692 0.01692 0.01692 0.01692 0.01692 0.01692 0.01692 0.01692 0.01692 0.01692 0.01692 0.01692 0.01692 0.01692 
0.008849 0.008848 0.008848 0.008848 0.008848 0.008847 0.008847 0.008847 0.008847 0.008847 0.008848 0.008848 0.008848 0.008848 0.008848 0.008848 0.008848 0.008848 0.008848 0.008849 0.008849 
0.004279 0.004279 0.004279 0.004278 0.004278 0.004278 0.004278 0.004278 0.004278 0.004278 0.004278 0.004278 0.004278 0.004278 0.004278 0.004278 0.004278 0.004278 0.004278 0.004279 0.004279 
0.00191 0.00191 0.00191 0.00191 0.00191 0.00191 0.00191 0.00191 0.00191 0.00191 0.00191 0.00191 0.00191 0.00191 0.00191 0.00191 0.00191 0.00191 0.00191 0.00191 0.00191 
0.0007864 0.0007864 0.0007865 0.0007865 0.0007865 0.0007864 0.0007864 0.0007864 0.0007864 0.0007863 0.0007863 0.0007863 0.0007863 0.0007863 0.0007863 0.0007863 0.0007863 0.0007863 0.0007864 0.0007864 0.0007864 
0.000298 0.000298 0.000298 0.0002981 0.0002981 0.0002981 0.000298 0.000298 0.000298 0.000298 0.000298 0.000298 0.000298 0.000298 0.000298 0.000298 0.000298 0.000298 0.000298 0.000298 0.000298 
0.0001038 0.0001038 0.0001038 0.0001038 0.0001038 0.0001038 0.0001038 0.0001038 0.0001038 0.0001038 0.0001038 0.0001038 0.0001038 0.0001038 0.0001038 0.0001038 0.0001038 0.0001038 0.0001038 0.0001038 0.0001038 
3.317e-05 3.317e-05 3.317e-05 3.317e-05 3.317e-05 3.317e-05 3.317e-05 3.317e-05 3.317e-05 3.317e-05 3.317e-05 3.317e-05 3.317e-05 3.317e-05 3.317e-05 3.317e-05 3.317e-05 3.317e-05 3.317e-05 3.317e-05 3.317e-05 
9.705e-06 9.706e-06 9.706e-06 9.706e-06 9.707e-06 9.707e-06 9.707e-06 9.707e-06 9.708e-06 9.708e-06 9.708e-06 9.707e-06 9.707e-06 9.707e-06 9.706e-06 9.706e-06 9.706e-06 9.705e-06 9.705e-06 9.705e-06 9.705e-06 
2.598e-06 2.598e-06 2.598e-06 2.598e-06 2.598e-06 2.598e-06 2.598e-06 2.598e-06 2.598e-06 2.598e-06 2.599e-06 2.599e-06 2.598e-06 2.598e-06 2.598e-06 2.598e-06 2.598e-06 2.598e-06 2.598e-06 2.598e-06 2.598e-06 
6.456e-07 6.456e-07 6.456e-07 6.456e-07 6.456e-07 6.456e-07 6.457e-07 6.457e-07 6.457e-07 6.457e-07 6.457e-07 6.457e-07 6.457e-07 6.457e-07 6.457e-07 6.457e-07 6.457e-07 6.457e-07 6.456e-07 6.456e-07 6.456e-07 
1.939e-07 1.939e-07 1.939e-07 1.939e-07 1.939e-07 1.939e-07 1.939e-07 1.939e-07 1.939e-07 1.939e-07 1.939e-07 1.939e-07 1.939e-07 1.939e-07 1.939e-07 1.939e-07 1.939e-07 1.939e-07 1.939e-07 1.939e-07 1.939e-07 
2.369e-07 2.369e-07 2.369e-07 2.369e-07 2.369e-07 2.369e-07 2.369e-07 2.369e-07 2.369e-07 2.369e-07 2.369e-07 2.369e-07 2.369e-07 2.369e-07 2.369e-07 2.369e-07 2.369e-07 2.369e-07 2.369e-07 2.369e-07 2.369e-07 
7.675e-07 7.675e-07 7.675e-07 7.675e-07 7.675e-07 7.675e-07 7.675e-07 7.675e-07 7.675e-07 7.675e-07 7.675e-07 7.675e-07 7.675e-07 7.675e-07 7.675e-07 7.675e-07 7.675e-07 7.675e-07 7.675e-07 7.675e-07 7.675e-07 
2.613e-06 2.614e-06 2.614e-06 2.614e-06 2.614e-06 2.614e-06 2.614e-06 2.614e-06 2.614e-06 2.614e-06 2.614e-06 2.614e-06 2.614e-06 2.614e-06 2.613e-06 2.613e-06 2.613e-06 2.613e-06 2.613e-06 2.613e-06 2.613e-06 
8.4e-06 8.4e-06 8.4e-06 8.4e-06 8.4e-06 8.4e-06 8.4e-06 8.4e-06 8.4e-06 8.4e-06 8.4e-06 8.4e-06 8.4e-06 8.4e-06 8.4e-06 8.4e-06 8.4e-06 8.4e-06 8.4e-06 8.4e-06 8.4e-06 
2.534e-05 2.534e-05 2.534e-05 2.534e-05 2.535e-05 2.535e-05 2.535e-05 2.535e-05 2.535e-05 2.535e-05 2.535e-05 2.535e-05 2.535e-05 2.535e-05 2.535e-05 2.535e-05 2.535e-05 2.535e-05 2.535e-05 2.534e-05 2.534e-05 
</DataArray>
<DataArray Name="E" NumberOfComponents="1" format="ascii" type="Float64">
-1.431 -1.431 -1.431 -1.431 -1.431 -1.431 -1.431 -1.431 -1.431 -1.431 -1.431 -1.431 -1.431 -1.431 -1.431 -1.431 -1.431 -1.431 -1.431 -1.431 -1.431 
-1.431 -1.431 -1.431 -1.431 -1.431 -1.431 -1.431 -1.431 -1.431 -1.431 -1.431 -1.431 -1.431 -1.431 -1.431 -1.431 -1.431 -1.431 -1.431 -1.431 -1.431 
-1.431 -1.431 -1.431 -1.431 -1.431 -1.431 -1.431 -1.431 -1.431 -1.431 -1.431 -1.431 -1.431 -1.431 -1.431 -1.431 -1.431 -1.431 -1.431 -1.431 -1.431 
-1.431 -1.431 -1.431 -1.431 -1.431 -1.431 -1.431 -1.431 -1.431 -1.431 -1.431 -1.431 -1.431 -1.431 -1.431 -1.431 -1.431 -1.431 -1.431 -1.431 -1.431 
-1.431 -1.431 -1.431 -1.431 -1.431 -1.431 -1.431 -1.431 -1.431 -1.431 -1.431 -1.431 -1.431 -1.431 -1.431 -1.431 -1.431 -1.431 -1.431 -1.431 -1.431 
-1.431 -1.431 -1.431 -1.431 -1.431 -1.431 -1.431 -1.431 -1.431 -1.431 -1.431 -1.431 -1.431 -1.431 -1.431 -1.431 -1.431 -1.431 -1.431 -1.431 -1.431 
-1.431 -1.431 -1.431 -1.431 -1.431 -1.431 -1.431 -1.431 -1.431 -1.431 -1.431 -1.431 -1.431 -1.431 -1.431 -1.431 -1.431 -1.431 -1.431 -1.431 -1.431 
-1.431 -1.431 -1.431 -1.431 -1.431 -1.431 -1.431 -1.431 -1.431 -1.431 -1.431 -1.431 -1.431 -1.431 -1.431 -1.431 -1.431 -1.431 -1.431 -1.431 -1.431 
-1.431 -1.431 -1.431 -1.431 -1.431 -1.431 -1.431 -1.431 -1.431 -1.431 -1.431 -1.431 -1.431 -1.431 -1.431 -1.431 -1.431 -1.431 -1.431 -1.431 -1.431 
-1.431 -1.431 -1.431 -1.431 -1.431 -1.431 -1.431 -1.431 -1.431 -1.431 -1.431 -1.431 -1.431 -1.431 -1.431 -1.431 -1.431 -1.431 -1.431 -1.431 -1.431 
-1.431 -1.431 -1.431 -1.431 -1.431 -1.431 -1.431 -1.431 -1.431 -1.431 -1.431 -1.431 -1.431 -1.431 -1.431 -1.431 -1.431 -1.431 -1.431 -1.431 -1.431 
-1.431 -1.431 -1.431 -1.431 -1.431 -1.431 -1.431 -1.431 -1.431 -1.431 -1.431 -1.431 -1.431 -1.431 -1.431 -1.431 -1.431 -1.431 -1.431 -1.431 -1.431 
-1.431 -1.431 -1.431 -1.431 -1.431 -1.431 -1.431 -1.431 -1.431 -1.431 -1.431 -1.431 -1.431 -1.431 -1.431 -1.431 -1.431 -1.431 -1.431 -1.431 -1.431 
-1.431 -1.431 -1.431 -1.431 -1.431 -1.431 -1.431 -1.431 -1.431 -1.431 -1.431 -1.431 -1.431 -1.431 -1.431 -1.431 -1.431 -1.431 -1.431 -1.431 -1.431 
-1.431 -1.431 -1.431 -1.431 -1.431 -1.431 -1.431 -1.431 -1.431 -1.431 -1.431 -1.431 -1.431 -1.431 -1.431 -1.431 -1.431 -1.431 -1.431 -1.431 -1.431 
-1.431 -1.431 -1.431 -1.431 -1.431 -1.431 -1.431 -1.431 -1.431 -1.431 -1.431 -1.431 -1.431 -1.431 -1.431 -1.431 -1.431 -1.431 -1.431 -1.431 -1.431 
-1.431 -1.431 -1.431 -1.431 -1.431 -1.431 -1.431 -1.431 -1.431 -1.431 -1.431 -1.431 -1.431 -1.431 -1.431 -1.431 -1.431 -1.431 -1.431 -1.431 -1.431 
-1.431 -1.431 -1.431 -1.431 -1.431 -1.431 -1.431 -1.431 -1.431 -1.431 -1.431 -1.431 -1.431 -1.431 -1.431 -1.431 -1.431 -1.431 -1.431 -1.431 -1.431 
-1.431 -1.431 -1.431 -1.431 -1.431 -1.431 -1.431 -1.431 -1.431 -1.431 -1.431 -1.431 -1.431 -1.431 -1.431 -1.431 -1.431 -1.431 -1.431 -1.431 -1.431 
-1.431 -1.431 -1.431 -1.431 -1.431 -1.431 -1.431 -1.431 -1.431 -1.431 -1.431 -1.431 -1.431 -1.431 -1.431 -1.431 -1.431 -1.431 -1.431 -1.431 -1.431 
-1.431 -1.431 -1.431 -1.431 -1.431 -1.431 -1.431 -1.431 -1.431 -1.431 -1.431 -1.431 -1.431 -1.431 -1.431 -1.431 -1.431 -1.431 -1.431 -1.431 -1.431 
-1.431 -1.431 -1.431 -1.431 -1.431 -1.431 -1.431 -1.431 -1.431 -1.431 -1.431 -1.431 -1.431 -1.431 -1.431 -1.431 -1.431 -1.431 -1.431 -1.431 -1.431 
-1.431 -1.431 -1.431 -1.431 -1.431 -1.431 -1.431 -1.431 -1.431 -1.431 -1.431 -1.431 -1.431 -1.431 -1.431 -1.431 -1.431 -1.431 -1.431 -1.431 -1.431 
-1.431 -1.431 -1.431 -1.431 -1.431 -1.431 -1.431 -1.431 -1.431 -1.431 -1.431 -1.431 -1.431 -1.431 -1.431 -1.431 -1.431 -1.431 -1.431 -1.431 -1.431 
-1.431 -1.431 -1.431 -1.431 -1.431 -1.431 -1.431 -1.431 -1.431 -1.431 -1.431 -1.431 -1.431 -1.431 -1.431 -1.431 -1.431 -1.431 -1.431 -1.431 -1.431 
-1.431 -1.431 -1.431 -1.431 -1.431 -1.431 -1.431 -1.431 -1.431 -1.431 -1.431 -1.431 -1.431 -1.431 -1.431 -1.431 -1.431 -1.431 -1.431 -1.431 -1.431 
-1.431 -1.431 -1.431 -1.431 -1.431 -1.431 -1.431 -1.431 -1.431 -1.431 -1.431 -1.431 -1.431 -1.431 -1.431 -1.431 -1.431 -1.431 -1.431 -1.431 -1.431 
-1.431 -1.431 -1.431 -1.431 -1.431 -1.431 -1.431 -1.431 -1.431 -1.431 -1.431 -1.431 -1.431 -1.431 -1.431 -1.431 -1.431 -1.431 -1.431 -1.431 -1.431 
-1.431 -1.431 -1.431 -1.431 -1.431 -1.431 -1.431 -1.431 -1.431 -1.431 -1.431 -1.431 -1.431 -1.431 -1.431 -1.431 -1.431 -1.431 -1.431 -1.431 -1.431 
-1.431 -1.431 -1.431 -1.431 -1.431 -1.431 -1.431 -1.431 -1.431 -1.431 -1.431 -1.431 -1.431 -1.431 -1.431 -1.431 -1.431 -1.431 -1.431 -1.431 -1.431 
-1.431 -1.431 -1.431 -1.431 -1.431 -1.431 -1.431 -1.431 -1.431 -1.431 -1.431 -1.431 -1.431 -1.431 -1.431 -1.431 -1.431 -1.431 -1.431 -1.431 -1.431 
-1.431 -1.431 -1.431 -1.431 -1.431 -1.431 -1.431 -1.431 -1.431 -1.431 -1.431 -1.431 -1.431 -1.431 -1.431 -1.431 -1.431 -1.431 -1.431 -1.431 -1.431 
-1.431 -1.431 -1.431 -1.431 -1.431 -1.431 -1.431 -1.431 -1.431 -1.431 -1.431 -1.431 -1.431 -1.431 -1.431 -1.431 -1.431 -1.431 -1.431 -1.431 -1.431 
-1.431 -1.431 -1.431 -1.431 -1.431 -1.431 -1.431 -1.431 -1.431 -1.431 -1.431 -1.431 -1.431 -1.431 -1.431 -1.431 -1.431 -1.431 -1.431 -1.431 -1.431 
-1.431 -1.431 -1.431 -1.431 -1.431 -1.431 -1.431 -1.431 -1.431 -1.431 -1.431 -1.431 -1.431 -1.431 -1.431 -1.431 -1.431 -1.431 -1.431 -1.431 -1.431 
-1.431 -1.431 -1.431 -1.431 -1.431 -1.431 -1.431 -1.431 -1.431 -1.431 -1.431 -1.431 -1.431 -1.431 -1.431 -1.431 -1.431 -1.431 -1.431 -1.431 -1.431 
-1.431 -1.431 -1.431 -1.431 -1.431 -1.431 -1.431 -1.431 -1.431 -1.431 -1.431 -1.431 -1.431 -1.431 -1.431 -1.431 -1.431 -1.431 -1.431 -1.431 -1.431 
-1.431 -1.431 -1.431 -1.431 -1.431 -1.431 -1.431 -1.431 -1.431 -1.431 -1.431 -1.431 -1.431 -1.431 -1.431 -1.431 -1.431 -1.431 -1.431 -1.431 -1.431 
-1.431 -1.431 -1.431 -1.431 -1.431 -1.431 -1.431 -1.431 -1.431 -1.431 -1.431 -1.431 -1.431 -1.431 -1.431 -1.431 -1.431 -1.431 -1.431 -1.431 -1.431 
-1.431 -1.431 -1.431 -1.431 -1.431 -1.431 -1.431 -1.431 -1.431 -1.431 -1.431 -1.431 -1.431 -1.431 -1.431 -1.431 -1.431 -1.431 -1.431 -1.431 -1.431 
-1.431 -1.431 -1.431 -1.431 -1.431 -1.431 -1.431 -1.431 -1.431 -1.431 -1.431 -1.431 -1.431 -1.431 -1.431 -1.431 -1.431 -1.431 -1.431 -1.431 -1.431 
</DataArray>
<DataArray Name="ne" NumberOfComponents="1" format="ascii" type="Float64">
1 1 1 1 1 1 1 1 1 1 1 1 1 1 1 1 1 1 1 1 1 
1 1 1 1 1 1 1 1 1 1 1 1 1 1 1 1 1 1 1 1 1 
1 1 1 1 1 1 1 1 1 1 1 1 1 1 1 1 1 1 1 1 1 
1 1 1 1 1 1 1 1 1 1 1 1 1 1 1 1 1 1 1 1 1 
1 1 1 1 1 1 1 1 1 1 1 1 1 1 1 1 1 1 1 1 1 
1 1 1 1 1 1 1 1 1 1 1 1 1 1 1 1 1 1 1 1 1 
1 1 1 1 1 1 1 1 1 1 1 1 1 1 1 1 1 1 1 1 1 
1 1 1 1 1 1 1 1 1 1 1 1 1 1 1 1 1 1 1 1 1 
1 1 1 1 1 1 1 1 1 1 1 1 1 1 1 1 1 1 1 1 1 
1 1 1 1 1 1 1 1 1 1 1 1 1 1 1 1 1 1 1 1 1 
1 1 1 1 1 1 1 1 1 1 1 1 1 1 1 1 1 1 1 1 1 
1 1 1 1 1 1 1 1 1 1 1 1 1 1 1 1 1 1 1 1 1 
1 1 1 1 1 1 1 1 1 1 1 1 1 1 1 1 1 1 1 1 1 
1 1 1 1 1 1 1 1 1 1 1 1 1 1 1 1 1 1 1 1 1 
1 1 1 1 1 1 1 1 1 1 1 1 1 1 1 1 1 1 1 1 1 
1 1 1 1 1 1 1 1 1 1 1 1 1 1 1 1 1 1 1 1 1 
1 1 1 1 1 1 1 1 1 1 1 1 1 1 1 1 1 1 1 1 1 
1 1 1 1 1 1 1 1 1 1 1 1 1 1 1 1 1 1 1 1 1 
1 1 1 1 1 1 1 1 1 1 1 1 1 1 1 1 1 1 1 1 1 
1 1 1 1 1 1 1 1 1 1 1 1 1 1 1 1 1 1 1 1 1 
1 1 1 1 1 1 1 1 1 1 1 1 1 1 1 1 1 1 1 1 1 
1 1 1 1 1 1 1 1 1 1 1 1 1 1 1 1 1 1 1 1 1 
1 1 1 1 1 1 1 1 1 1 1 1 1 1 1 1 1 1 1 1 1 
1 1 1 1 1 1 1 1 1 1 1 1 1 1 1 1 1 1 1 1 1 
1 1 1 1 1 1 1 1 1 1 1 1 1 1 1 1 1 1 1 1 1 
1 1 1 1 1 1 1 1 1 1 1 1 1 1 1 1 1 1 1 1 1 
1 1 1 1 1 1 1 1 1 1 1 1 1 1 1 1 1 1 1 1 1 
1 1 1 1 1 1 1 1 1 1 1 1 1 1 1 1 1 1 1 1 1 
1 1 1 1 1 1 1 1 1 1 1 1 1 1 1 1 1 1 1 1 1 
1 1 1 1 1 1 1 1 1 1 1 1 1 1 1 1 1 1 1 1 1 
1 1 1 1 1 1 1 1 1 1 1 1 1 1 1 1 1 1 1 1 1 
1 1 1 1 1 1 1 1 1 1 1 1 1 1 1 1 1 1 1 1 1 
1 1 1 1 1 1 1 1 1 1 1 1 1 1 1 1 1 1 1 1 1 
1 1 1 1 1 1 1 1 1 1 1 1 1 1 1 1 1 1 1 1 1 
1 1 1 1 1 1 1 1 1 1 1 1 1 1 1 1 1 1 1 1 1 
1 1 1 1 1 1 1 1 1 1 1 1 1 1 1 1 1 1 1 1 1 
1 1 1 1 1 1 1 1 1 1 1 1 1 1 1 1 1 1 1 1 1 
1 1 1 1 1 1 1 1 1 1 1 1 1 1 1 1 1 1 1 1 1 
1 1 1 1 1 1 1 1 1 1 1 1 1 1 1 1 1 1 1 1 1 
1 1 1 1 1 1 1 1 1 1 1 1 1 1 1 1 1 1 1 1 1 
1 1 1 1 1 1 1 1 1 1 1 1 1 1 1 1 1 1 1 1 1 
</DataArray>
</PointData>
</Piece>
</ImageData>
</VTKFile>
