<VTKFile type="ImageData">
<ImageData Origin="0 -10 0" Spacing="0.5 0.5 1" WholeExtent="0 20 0 40 0 0">
<Piece Extent="0 20 0 40 0 0">
<PointData>
<DataArray Name="f" NumberOfComponents="1" format="ascii" type="Float64">
0.001935 0.001935 0.001935 0.001935 0.001935 0.001935 0.001935 0.001935 0.001935 0.001935 0.001935 0.001935 0.001935 0.001935 0.001935 0.001935 0.001935 0.001935 0.001935 0.001935 0.001935 
0.004406 0.004406 0.004406 0.004406 0.004406 0.004406 0.004406 0.004406 0.004406 0.004406 0.004406 0.004406 0.004406 0.004406 0.004406 0.004406 0.004406 0.004406 0.004406 0.004406 0.004406 
0.00932 0.00932 0.00932 0.00932 0.00932 0.00932 0.00932 0.00932 0.00932 0.00932 0.00932 0.00932 0.00932 0.00932 0.00932 0.00932 0.00932 0.00932 0.00932 0.00932 0.00932 
0.0183 0.0183 0.0183 0.0183 0.0183 0.0183 0.0183 0.0183 0.0183 0.0183 0.0183 0.0183 0.0183 0.0183 0.0183 0.0183 0.0183 0.0183 0.0183 0.0183 0.0183 
0.03333 0.03333 0.03333 0.03333 0.03333 0.03333 0.03333 0.03333 0.03333 0.03333 0.03333 0.03333 0.03333 0.03333 0.03333 0.03333 0.03333 0.03333 0.03333 0.03333 0.03333 
0.05624 0.05624 0.05624 0.05624 0.05624 0.05624 0.05624 0.05624 0.05624 0.05624 0.05624 0.05624 0.05624 0.05624 0.05624 0.05624 0.05624 0.05624 0.05624 0.05624 0.05624 
0.08779 0.08779 0.08779 0.08779 0.08779 0.08779 0.08779 0.08779 0.08779 0.08779 0.08779 0.08779 0.08779 0.08779 0.08779 0.08779 0.08779 0.08779 0.08779 0.08779 0.08779 
0.1266 0.1266 0.1266 0.1266 0.1266 0.1266 0.1266 0.1266 0.1266 0.1266 0.1266 0.1266 0.1266 0.1266 0.1266 0.1266 0.1266 0.1266 0.1266 0.1266 0.1266 
0.1684 0.1684 0.1684 0.1684 0.1684 0.1684 0.1684 0.1684 0.1684 0.1684 0.1684 0.1684 0.1684 0.1684 0.1684 0.1684 0.1684 0.1684 0.1684 0.1684 0.1684 
0.2062 0.2062 0.2062 0.2062 0.2062 0.2062 0.2062 0.2062 0.2062 0.2062 0.2062 0.2062 0.2062 0.2062 0.2062 0.2062 0.2062 0.2062 0.2062 0.2062 0.2062 
0.2319 0.2319 0.2319 0.2319 0.2319 0.2319 0.2319 0.2319 0.2319 0.2319 0.2319 0.2319 0.2319 0.2319 0.2319 0.2319 0.2319 0.2319 0.2319 0.2319 0.2319 
0.239 0.239 0.239 0.239 0.239 0.239 0.239 0.239 0.239 0.239 0.239 0.239 0.239 0.239 0.239 0.239 0.239 0.239 0.239 0.239 0.239 
0.2251 0.2251 0.2251 0.2251 0.2251 0.2251 0.2251 0.2251 0.2251 0.2251 0.2251 0.2251 0.2251 0.2251 0.2251 0.2251 0.2251 0.2251 0.2251 0.2251 0.2251 
0.1932 0.1932 0.1932 0.1932 0.1932 0.1932 0.1932 0.1932 0.1932 0.1932 0.1932 0.1932 0.1932 0.1932 0.1932 0.1932 0.1932 0.1932 0.1932 0.1932 0.1932 
0.1507 0.1507 0.1507 0.1507 0.1507 0.1507 0.1507 0.1507 0.1507 0.1507 0.1507 0.1507 0.1507 0.1507 0.1507 0.1507 0.1507 0.1507 0.1507 0.1507 0.1507 
0.1063 0.1063 0.1063 0.1063 0.1063 0.1063 0.1063 0.1063 0.1063 0.1063 0.1063 0.1063 0.1063 0.1063 0.1063 0.1063 0.1063 0.1063 0.1063 0.1063 0.1063 
0.06762 0.06762 0.06762 0.06762 0.06762 0.06762 0.06762 0.06762 0.06762 0.06762 0.06762 0.06762 0.06762 0.06762 0.06762 0.06762 0.06762 0.06762 0.06762 0.06762 0.06762 
0.03859 0.03859 0.03859 0.03859 0.03859 0.03859 0.0386 0.0386 0.0386 0.0386 0.0386 0.0386 0.0386 0.0386 0.0386 0.0386 0.0386 0.0386 0.0386 0.0386 0.03859 
0.01967 0.01967 0.01967 0.01967 0.01967 0.01967 0.01967 0.01967 0.01967 0.01967 0.01967 0.01967 0.01967 0.01967 0.01967 0.01967 0.01967 0.01967 0.01967 0.01967 0.01967 
0.008907 0.008907 0.008907 0.008907 0.008907 0.008907 0.008907 0.008907 0.008907 0.008907 0.008907 0.008907 0.008907 0.008907 0.008907 0.008907 0.008907 0.008907 0.008907 0.008907 0.008907 
0.003561 0.003561 0.003561 0.003561 0.003561 0.003561 0.003561 0.003561 0.003561 0.003561 0.003561 0.003561 0.003561 0.003561 0.003561 0.003561 0.003561 0.003561 0.003561 0.003561 0.003561 
0.001249 0.001249 0.001249 0.001249 0.001249 0.001249 0.001249 0.001249 0.001249 0.001249 0.001249 0.001249 0.001249 0.001249 0.001249 0.001249 0.001249 0.001249 0.001249 0.001249 0.001249 
0.0003817 0.0003816 0.0003816 0.0003816 0.0003816 0.0003816 0.0003816 0.0003817 0.0003817 0.0003817 0.0003817 0.0003817 0.0003817 0.0003817 0.0003817 0.0003817 0.0003817 0.0003817 0.0003817 0.0003817 0.0003817 
0.0001009 0.0001009 0.0001009 0.0001009 0.0001009 0.0001009 0.0001009 0.0001009 0.0001009 0.0001009 0.0001009 0.0001009 0.0001009 0.0001009 0.0001009 0.0001009 0.0001009 0.0001009 0.0001009 0.0001009 0.0001009 
2.287e-05 2.287e-05 2.287e-05 2.287e-05 2.287e-05 2.287e-05 2.287e-05 2.287e-05 2.287e-05 2.287e-05 2.287e-05 2.287e-05 2.287e-05 2.287e-05 2.287e-05 2.287e-05 2.287e-05 2.287e-05 2.287e-05 2.287e-05 2.287e-05 
4.412e-06 4.411e-06 4.411e-06 4.411e-06 4.411e-06 4.411e-06 4.411e-06 4.411e-06 4.411e-06 4.411e-06 4.411e-06 4.411e-06 4.411e-06 4.411e-06 4.412e-06 4.412e-06 4.412e-06 4.412e-06 4.412e-06 4.412e-06 4.412e-06 
7.179e-07 7.179e-07 7.179e-07 7.179e-07 7.179e-07 7.179e-07 7.179e-07 7.179e-07 7.179e-07 7.179e-07 7.179e-07 7.179e-07 7.179e-07 7.179e-07 7.179e-07 7.179e-07 7.179e-07 7.179e-07 7.179e-07 7.179e-07 7.179e-07 
9.771e-08 9.771e-08 9.771e-08 9.771e-08 9.77e-08 9.77e-08 9.77e-08 9.77e-08 9.77e-08 9.77e-08 9.771e-08 9.771e-08 9.771e-08 9.771e-08 9.771e-08 9.771e-08 9.771e-08 9.771e-08 9.771e-08 9.771e-08 9.771e-08 
1.109e-08 1.109e-08 1.109e-08 1.108e-08 1.108e-08 1.108e-08 1.108e-08 1.108e-08 1.108e-08 1.108e-08 1.108e-08 1.108e-08 1.109e-08 1.109e-08 1.109e-08 1.109e-08 1.109e-08 1.109e-08 1.109e-08 1.109e-08 1.109e-08 
1.383e-09 1.383e-09 1.383e-09 1.383e-09 1.383e-09 1.383e-09 1.383e-09 1.383e-09 1.383e-09 1.383e-09 1.383e-09 1.383e-09 1.383e-09 1.383e-09 1.383e-09 1.383e-09 1.383e-09 1.383e-09 1.383e-09 1.383e-09 1.383e-09 
2.031e-09 2.031e-09 2.031e-09 2.031e-09 2.031e-09 2.031e-09 2.031e-09 2.031e-09 2.031e-09 2.031e-09 2.031e-09 2.031e-09 2.031e-09 2.031e-09 2.031e-09 2.031e-09 2.031e-09 2.031e-09 2.031e-09 2.031e-09 2.031e-09 
9.839e-09 9.84e-09 9.84e-09 9.841e-09 9.841e-09 9.841e-09 9.841e-09 9.841e-09 9.841e-09 9.841e-09 9.841e-09 9.841e-09 9.841e-09 9.84e-09 9.84e-09 9.84e-09 9.84e-09 9.84e-09 9.84e-09 9.839e-09 9.839e-09 
4.601e-08 4.602e-08 4.602e-08 4.602e-08 4.602e-08 4.602e-08 4.602e-08 4.602e-08 4.602e-08 4.602e-08 4.602e-08 4.602e-08 4.602e-08 4.602e-08 4.602e-08 4.602e-08 4.602e-08 4.602e-08 4.601e-08 4.601e-08 4.601e-08 
2.002e-07 2.002e-07 2.002e-07 2.002e-07 2.002e-07 2.002e-07 2.002e-07 2.002e-07 2.002e-07 2.002e-07 2.002e-07 2.002e-07 2.002e-07 2.002e-07 2.002e-07 2.002e-07 2.002e-07 2.002e-07 2.002e-07 2.002e-07 2.002e-07 
8.102e-07 8.102e-07 8.102e-07 8.102e-07 8.102e-07 8.103e-07 8.103e-07 8.103e-07 8.103e-07 8.103e-07 8.102e-07 8.102e-07 8.102e-07 8.102e-07 8.102e-07 8.102e-07 8.102e-07 8.102e-07 8.102e-07 8.102e-07 8.102e-07 
3.051e-06 3.052e-06 3.052e-06 3.052e-06 3.052e-06 3.052e-06 3.052e-06 3.052e-06 3.052e-06 3.052e-06 3.052e-06 3.052e-06 3.052e-06 3.052e-06 3.052e-06 3.052e-06 3.052e-06 3.052e-06 3.052e-06 3.052e-06 3.051e-06 
1.07e-05 1.07e-05 1.07e-05 1.07e-05 1.07e-05 1.07e-05 1.07e-05 1.07e-05 1.07e-05 1.07e-05 1.07e-05 1.07e-05 1.07e-05 1.07e-05 1.07e-05 1.07e-05 1.07e-05 1.07e-05 1.07e-05 1.07e-05 1.07e-05 
3.492e-05 3.493e-05 3.493e-05 3.493e-05 3.493e-05 3.493e-05 3.493e-05 3.493e-05 3.493e-05 3.493e-05 3.493e-05 3.493e-05 3.493e-05 3.493e-05 3.493e-05 3.493e-05 3.493e-05 3.493e-05 3.492e-05 3.492e-05 3.492e-05 
0.0001061 0.0001061 0.0001061 0.0001061 0.0001061 0.0001061 0.0001061 0.0001061 0.0001061 0.0001061 0.0001061 0.0001061 0.0001061 0.0001061 0.0001061 0.0001061 0.0001061 0.0001061 0.0001061 0.0001061 0.0001061 
0.0003002 0.0003002 0.0003002 0.0003002 0.0003002 0.0003002 0.0003002 0.0003002 0.0003002 0.0003002 0.0003002 0.0003002 0.0003002 0.0003002 0.0003002 0.0003002 0.0003002 0.0003002 0.0003002 0.0003002 0.0003002 
0.0007903 0.0007903 0.0007903 0.0007903 0.0007903 0.0007903 0.0007903 0.0007903 0.0007903 0.0007903 0.0007903 0.0007903 0.0007903 0.0007903 0.0007903 0.0007903 0.0007903 0.0007903 0.0007903 0.0007903 0.0007903 
</DataArray>
<DataArray Name="E" NumberOfComponents="1" format="ascii" type="Float64">
0.284 0.2839 0.2839 0.2839 0.2839 0.2839 0.2839 0.2839 0.2839 0.2839 0.2839 0.2839 0.2839 0.2839 0.2839 0.2838 0.2838 0.2838 0.2838 0.2838 0.2838 
0.284 0.2839 0.2839 0.2839 0.2839 0.2839 0.2839 0.2839 0.2839 0.2839 0.2839 0.2839 0.2839 0.2839 0.2839 0.2838 0.2838 0.2838 0.2838 0.2838 0.2838 
0.284 0.2839 0.2839 0.2839 0.2839 0.2839 0.2839 0.2839 0.2839 0.2839 0.2839 0.2839 0.2839 0.2839 0.2839 0.2838 0.2838 0.2838 0.2838 0.2838 0.2838 
0.284 0.2839 0.2839 0.2839 0.2839 0.2839 0.2839 0.2839 0.2839 0.2839 0.2839 0.2839 0.2839 0.2839 0.2839 0.2838 0.2838 0.2838 0.2838 0.2838 0.2838 
0.284 0.2839 0.2839 0.2839 0.2839 0.2839 0.2839 0.2839 0.2839 0.2839 0.2839 0.2839 0.2839 0.2839 0.2839 0.2838 0.2838 0.2838 0.2838 0.2838 0.2838 
0.284 0.2839 0.2839 0.2839 0.2839 0.2839 0.2839 0.2839 0.2839 0.2839 0.2839 0.2839 0.2839 0.2839 0.2839 0.2838 0.2838 0.2838 0.2838 0.2838 0.2838 
0.284 0.2839 0.2839 0.2839 0.2839 0.2839 0.2839 0.2839 0.2839 0.2839 0.2839 0.2839 0.2839 0.2839 0.2839 0.2838 0.2838 0.2838 0.2838 0.2838 0.2838 
0.284 0.2839 0.2839 0.2839 0.2839 0.2839 0.2839 0.2839 0.2839 0.2839 0.2839 0.2839 0.2839 0.2839 0.2839 0.2838 0.2838 0.2838 0.2838 0.2838 0.2838 
0.284 0.2839 0.2839 0.2839 0.2839 0.2839 0.2839 0.2839 0.2839 0.2839 0.2839 0.2839 0.2839 0.2839 0.2839 0.2838 0.2838 0.2838 0.2838 0.2838 0.2838 
0.284 0.2839 0.2839 0.2839 0.2839 0.2839 0.2839 0.2839 0.2839 0.2839 0.2839 0.2839 0.2839 0.2839 0.2839 0.2838 0.2838 0.2838 0.2838 0.2838 0.2838 
0.284 0.2839 0.2839 0.2839 0.2839 0.2839 0.2839 0.2839 0.2839 0.2839 0.2839 0.2839 0.2839 0.2839 0.2839 0.2838 0.2838 0.2838 0.2838 0.2838 0.2838 
0.284 0.2839 0.2839 0.2839 0.2839 0.2839 0.2839 0.2839 0.2839 0.2839 0.2839 0.2839 0.2839 0.2839 0.2839 0.2838 0.2838 0.2838 0.2838 0.2838 0.2838 
0.284 0.2839 0.2839 0.2839 0.2839 0.2839 0.2839 0.2839 0.2839 0.2839 0.2839 0.2839 0.2839 0.2839 0.2839 0.2838 0.2838 0.2838 0.2838 0.2838 0.2838 
0.284 0.2839 0.2839 0.2839 0.2839 0.2839 0.2839 0.2839 0.2839 0.2839 0.2839 0.2839 0.2839 0.2839 0.2839 0.2838 0.2838 0.2838 0.2838 0.2838 0.2838 
0.284 0.2839 0.2839 0.2839 0.2839 0.2839 0.2839 0.2839 0.2839 0.2839 0.2839 0.2839 0.2839 0.2839 0.2839 0.2838 0.2838 0.2838 0.2838 0.2838 0.2838 
0.284 0.2839 0.2839 0.2839 0.2839 0.2839 0.2839 0.2839 0.2839 0.2839 0.2839 0.2839 0.2839 0.2839 0.2839 0.2838 0.2838 0.2838 0.2838 0.2838 0.2838 
0.284 0.2839 0.2839 0.2839 0.2839 0.2839 0.2839 0.2839 0.2839 0.2839 0.2839 0.2839 0.2839 0.2839 0.2839 0.2838 0.2838 0.2838 0.2838 0.2838 0.2838 
0.284 0.2839 0.2839 0.2839 0.2839 0.2839 0.2839 0.2839 0.2839 0.2839 0.2839 0.2839 0.2839 0.2839 0.2839 0.2838 0.2838 0.2838 0.2838 0.2838 0.2838 
0.284 0.2839 0.2839 0.2839 0.2839 0.2839 0.2839 0.2839 0.2839 0.2839 0.2839 0.2839 0.2839 0.2839 0.2839 0.2838 0.2838 0.2838 0.2838 0.2838 0.2838 
0.284 0.2839 0.2839 0.2839 0.2839 0.2839 0.2839 0.2839 0.2839 0.2839 0.2839 0.2839 0.2839 0.2839 0.2839 0.2838 0.2838 0.2838 0.2838 0.2838 0.2838 
0.284 0.2839 0.2839 0.2839 0.2839 0.2839 0.2839 0.2839 0.2839 0.2839 0.2839 0.2839 0.2839 0.2839 0.2839 0.2838 0.2838 0.2838 0.2838 0.2838 0.2838 
0.284 0.2839 0.2839 0.2839 0.2839 0.2839 0.2839 0.2839 0.2839 0.2839 0.2839 0.2839 0.2839 0.2839 0.2839 0.2838 0.2838 0.2838 0.2838 0.2838 0.2838 
0.284 0.2839 0.2839 0.2839 0.2839 0.2839 0.2839 0.2839 0.2839 0.2839 0.2839 0.2839 0.2839 0.2839 0.2839 0.2838 0.2838 0.2838 0.2838 0.2838 0.2838 
0.284 0.2839 0.2839 0.2839 0.2839 0.2839 0.2839 0.2839 0.2839 0.2839 0.2839 0.2839 0.2839 0.2839 0.2839 0.2838 0.2838 0.2838 0.2838 0.2838 0.2838 
0.284 0.2839 0.2839 0.2839 0.2839 0.2839 0.2839 0.2839 0.2839 0.2839 0.2839 0.2839 0.2839 0.2839 0.2839 0.2838 0.2838 0.2838 0.2838 0.2838 0.2838 
0.284 0.2839 0.2839 0.2839 0.2839 0.2839 0.2839 0.2839 0.2839 0.2839 0.2839 0.2839 0.2839 0.2839 0.2839 0.2838 0.2838 0.2838 0.2838 0.2838 0.2838 
0.284 0.2839 0.2839 0.2839 0.2839 0.2839 0.2839 0.2839 0.2839 0.2839 0.2839 0.2839 0.2839 0.2839 0.2839 0.2838 0.2838 0.2838 0.2838 0.2838 0.2838 
0.284 0.2839 0.2839 0.2839 0.2839 0.2839 0.2839 0.2839 0.2839 0.2839 0.2839 0.2839 0.2839 0.2839 0.2839 0.2838 0.2838 0.2838 0.2838 0.2838 0.2838 
0.284 0.2839 0.2839 0.2839 0.2839 0.2839 0.2839 0.2839 0.2839 0.2839 0.2839 0.2839 0.2839 0.2839 0.2839 0.2838 0.2838 0.2838 0.2838 0.2838 0.2838 
0.284 0.2839 0.2839 0.2839 0.2839 0.2839 0.2839 0.2839 0.2839 0.2839 0.2839 0.2839 0.2839 0.2839 0.2839 0.2838 0.2838 0.2838 0.2838 0.2838 0.2838 
0.284 0.2839 0.2839 0.2839 0.2839 0.2839 0.2839 0.2839 0.2839 0.2839 0.2839 0.2839 0.2839 0.2839 0.2839 0.2838 0.2838 0.2838 0.2838 0.2838 0.2838 
0.284 0.2839 0.2839 0.2839 0.2839 0.2839 0.2839 0.2839 0.2839 0.2839 0.2839 0.2839 0.2839 0.2839 0.2839 0.2838 0.2838 0.2838 0.2838 0.2838 0.2838 
0.284 0.2839 0.2839 0.2839 0.2839 0.2839 0.2839 0.2839 0.2839 0.2839 0.2839 0.2839 0.2839 0.2839 0.2839 0.2838 0.2838 0.2838 0.2838 0.2838 0.2838 
0.284 0.2839 0.2839 0.2839 0.2839 0.2839 0.2839 0.2839 0.2839 0.2839 0.2839 0.2839 0.2839 0.2839 0.2839 0.2838 0.2838 0.2838 0.2838 0.2838 0.2838 
0.284 0.2839 0.2839 0.2839 0.2839 0.2839 0.2839 0.2839 0.2839 0.2839 0.2839 0.2839 0.2839 0.2839 0.2839 0.2838 0.2838 0.2838 0.2838 0.2838 0.2838 
0.284 0.2839 0.2839 0.2839 0.2839 0.2839 0.2839 0.2839 0.2839 0.2839 0.2839 0.2839 0.2839 0.2839 0.2839 0.2838 0.2838 0.2838 0.2838 0.2838 0.2838 
0.284 0.2839 0.2839 0.2839 0.2839 0.2839 0.2839 0.2839 0.2839 0.2839 0.2839 0.2839 0.2839 0.2839 0.2839 0.2838 0.2838 0.2838 0.2838 0.2838 0.2838 
0.284 0.2839 0.2839 0.2839 0.2839 0.2839 0.2839 0.2839 0.2839 0.2839 0.2839 0.2839 0.2839 0.2839 0.2839 0.2838 0.2838 0.2838 0.2838 0.2838 0.2838 
0.284 0.2839 0.2839 0.2839 0.2839 0.2839 0.2839 0.2839 0.2839 0.2839 0.2839 0.2839 0.2839 0.2839 0.2839 0.2838 0.2838 0.2838 0.2838 0.2838 0.2838 
0.284 0.2839 0.2839 0.2839 0.2839 0.2839 0.2839 0.2839 0.2839 0.2839 0.2839 0.2839 0.2839 0.2839 0.2839 0.2838 0.2838 0.2838 0.2838 0.2838 0.2838 
0.284 0.2839 0.2839 0.2839 0.2839 0.2839 0.2839 0.2839 0.2839 0.2839 0.2839 0.2839 0.2839 0.2839 0.2839 0.2838 0.2838 0.2838 0.2838 0.2838 0.2838 
</DataArray>
<DataArray Name="ne" NumberOfComponents="1" format="ascii" type="Float64">
0.9994 0.9994 0.9994 0.9994 0.9994 0.9994 0.9994 0.9994 0.9994 0.9994 0.9994 0.9994 0.9994 0.9994 0.9994 0.9994 0.9994 0.9994 0.9994 0.9994 0.9994 
0.9994 0.9994 0.9994 0.9994 0.9994 0.9994 0.9994 0.9994 0.9994 0.9994 0.9994 0.9994 0.9994 0.9994 0.9994 0.9994 0.9994 0.9994 0.9994 0.9994 0.9994 
0.9994 0.9994 0.9994 0.9994 0.9994 0.9994 0.9994 0.9994 0.9994 0.9994 0.9994 0.9994 0.9994 0.9994 0.9994 0.9994 0.9994 0.9994 0.9994 0.9994 0.9994 
0.9994 0.9994 0.9994 0.9994 0.9994 0.9994 0.9994 0.9994 0.9994 0.9994 0.9994 0.9994 0.9994 0.9994 0.9994 0.9994 0.9994 0.9994 0.9994 0.9994 0.9994 
0.9994 0.9994 0.9994 0.9994 0.9994 0.9994 0.9994 0.9994 0.9994 0.9994 0.9994 0.9994 0.9994 0.9994 0.9994 0.9994 0.9994 0.9994 0.9994 0.9994 0.9994 
0.9994 0.9994 0.9994 0.9994 0.9994 0.9994 0.9994 0.9994 0.9994 0.9994 0.9994 0.9994 0.9994 0.9994 0.9994 0.9994 0.9994 0.9994 0.9994 0.9994 0.9994 
0.9994 0.9994 0.9994 0.9994 0.9994 0.9994 0.9994 0.9994 0.9994 0.9994 0.9994 0.9994 0.9994 0.9994 0.9994 0.9994 0.9994 0.9994 0.9994 0.9994 0.9994 
0.9994 0.9994 0.9994 0.9994 0.9994 0.9994 0.9994 0.9994 0.9994 0.9994 0.9994 0.9994 0.9994 0.9994 0.9994 0.9994 0.9994 0.9994 0.9994 0.9994 0.9994 
0.9994 0.9994 0.9994 0.9994 0.9994 0.9994 0.9994 0.9994 0.9994 0.9994 0.9994 0.9994 0.9994 0.9994 0.9994 0.9994 0.9994 0.9994 0.9994 0.9994 0.9994 
0.9994 0.9994 0.9994 0.9994 0.9994 0.9994 0.9994 0.9994 0.9994 0.9994 0.9994 0.9994 0.9994 0.9994 0.9994 0.9994 0.9994 0.9994 0.9994 0.9994 0.9994 
0.9994 0.9994 0.9994 0.9994 0.9994 0.9994 0.9994 0.9994 0.9994 0.9994 0.9994 0.9994 0.9994 0.9994 0.9994 0.9994 0.9994 0.9994 0.9994 0.9994 0.9994 
0.9994 0.9994 0.9994 0.9994 0.9994 0.9994 0.9994 0.9994 0.9994 0.9994 0.9994 0.9994 0.9994 0.9994 0.9994 0.9994 0.9994 0.9994 0.9994 0.9994 0.9994 
0.9994 0.9994 0.9994 0.9994 0.9994 0.9994 0.9994 0.9994 0.9994 0.9994 0.9994 0.9994 0.9994 0.9994 0.9994 0.9994 0.9994 0.9994 0.9994 0.9994 0.9994 
0.9994 0.9994 0.9994 0.9994 0.9994 0.9994 0.9994 0.9994 0.9994 0.9994 0.9994 0.9994 0.9994 0.9994 0.9994 0.9994 0.9994 0.9994 0.9994 0.9994 0.9994 
0.9994 0.9994 0.9994 0.9994 0.9994 0.9994 0.9994 0.9994 0.9994 0.9994 0.9994 0.9994 0.9994 0.9994 0.9994 0.9994 0.9994 0.9994 0.9994 0.9994 0.9994 
0.9994 0.9994 0.9994 0.9994 0.9994 0.9994 0.9994 0.9994 0.9994 0.9994 0.9994 0.9994 0.9994 0.9994 0.9994 0.9994 0.9994 0.9994 0.9994 0.9994 0.9994 
0.9994 0.9994 0.9994 0.9994 0.9994 0.9994 0.9994 0.9994 0.9994 0.9994 0.9994 0.9994 0.9994 0.9994 0.9994 0.9994 0.9994 0.9994 0.9994 0.9994 0.9994 
0.9994 0.9994 0.9994 0.9994 0.9994 0.9994 0.9994 0.9994 0.9994 0.9994 0.9994 0.9994 0.9994 0.9994 0.9994 0.9994 0.9994 0.9994 0.9994 0.9994 0.9994 
0.9994 0.9994 0.9994 0.9994 0.9994 0.9994 0.9994 0.9994 0.9994 0.9994 0.9994 0.9994 0.9994 0.9994 0.9994 0.9994 0.9994 0.9994 0.9994 0.9994 0.9994 
0.9994 0.9994 0.9994 0.9994 0.9994 0.9994 0.9994 0.9994 0.9994 0.9994 0.9994 0.9994 0.9994 0.9994 0.9994 0.9994 0.9994 0.9994 0.9994 0.9994 0.9994 
0.9994 0.9994 0.9994 0.9994 0.9994 0.9994 0.9994 0.9994 0.9994 0.9994 0.9994 0.9994 0.9994 0.9994 0.9994 0.9994 0.9994 0.9994 0.9994 0.9994 0.9994 
0.9994 0.9994 0.9994 0.9994 0.9994 0.9994 0.9994 0.9994 0.9994 0.9994 0.9994 0.9994 0.9994 0.9994 0.9994 0.9994 0.9994 0.9994 0.9994 0.9994 0.9994 
0.9994 0.9994 0.9994 0.9994 0.9994 0.9994 0.9994 0.9994 0.9994 0.9994 0.9994 0.9994 0.9994 0.9994 0.9994 0.9994 0.9994 0.9994 0.9994 0.9994 0.9994 
0.9994 0.9994 0.9994 0.9994 0.9994 0.9994 0.9994 0.9994 0.9994 0.9994 0.9994 0.9994 0.9994 0.9994 0.9994 0.9994 0.9994 0.9994 0.9994 0.9994 0.9994 
0.9994 0.9994 0.9994 0.9994 0.9994 0.9994 0.9994 0.9994 0.9994 0.9994 0.9994 0.9994 0.9994 0.9994 0.9994 0.9994 0.9994 0.9994 0.9994 0.9994 0.9994 
0.9994 0.9994 0.9994 0.9994 0.9994 0.9994 0.9994 0.9994 0.9994 0.9994 0.9994 0.9994 0.9994 0.9994 0.9994 0.9994 0.9994 0.9994 0.9994 0.9994 0.9994 
0.9994 0.9994 0.9994 0.9994 0.9994 0.9994 0.9994 0.9994 0.9994 0.9994 0.9994 0.9994 0.9994 0.9994 0.9994 0.9994 0.9994 0.9994 0.9994 0.9994 0.9994 
0.9994 0.9994 0.9994 0.9994 0.9994 0.9994 0.9994 0.9994 0.9994 0.9994 0.9994 0.9994 0.9994 0.9994 0.9994 0.9994 0.9994 0.9994 0.9994 0.9994 0.9994 
0.9994 0.9994 0.9994 0.9994 0.9994 0.9994 0.9994 0.9994 0.9994 0.9994 0.9994 0.9994 0.9994 0.9994 0.9994 0.9994 0.9994 0.9994 0.9994 0.9994 0.9994 
0.9994 0.9994 0.9994 0.9994 0.9994 0.9994 0.9994 0.9994 0.9994 0.9994 0.9994 0.9994 0.9994 0.9994 0.9994 0.9994 0.9994 0.9994 0.9994 0.9994 0.9994 
0.9994 0.9994 0.9994 0.9994 0.9994 0.9994 0.9994 0.9994 0.9994 0.9994 0.9994 0.9994 0.9994 0.9994 0.9994 0.9994 0.9994 0.9994 0.9994 0.9994 0.9994 
0.9994 0.9994 0.9994 0.9994 0.9994 0.9994 0.9994 0.9994 0.9994 0.9994 0.9994 0.9994 0.9994 0.9994 0.9994 0.9994 0.9994 0.9994 0.9994 0.9994 0.9994 
0.9994 0.9994 0.9994 0.9994 0.9994 0.9994 0.9994 0.9994 0.9994 0.9994 0.9994 0.9994 0.9994 0.9994 0.9994 0.9994 0.9994 0.9994 0.9994 0.9994 0.9994 
0.9994 0.9994 0.9994 0.9994 0.9994 0.9994 0.9994 0.9994 0.9994 0.9994 0.9994 0.9994 0.9994 0.9994 0.9994 0.9994 0.9994 0.9994 0.9994 0.9994 0.9994 
0.9994 0.9994 0.9994 0.9994 0.9994 0.9994 0.9994 0.9994 0.9994 0.9994 0.9994 0.9994 0.9994 0.9994 0.9994 0.9994 0.9994 0.9994 0.9994 0.9994 0.9994 
0.9994 0.9994 0.9994 0.9994 0.9994 0.9994 0.9994 0.9994 0.9994 0.9994 0.9994 0.9994 0.9994 0.9994 0.9994 0.9994 0.9994 0.9994 0.9994 0.9994 0.9994 
0.9994 0.9994 0.9994 0.9994 0.9994 0.9994 0.9994 0.9994 0.9994 0.9994 0.9994 0.9994 0.9994 0.9994 0.9994 0.9994 0.9994 0.9994 0.9994 0.9994 0.9994 
0.9994 0.9994 0.9994 0.9994 0.9994 0.9994 0.9994 0.9994 0.9994 0.9994 0.9994 0.9994 0.9994 0.9994 0.9994 0.9994 0.9994 0.9994 0.9994 0.9994 0.9994 
0.9994 0.9994 0.9994 0.9994 0.9994 0.9994 0.9994 0.9994 0.9994 0.9994 0.9994 0.9994 0.9994 0.9994 0.9994 0.9994 0.9994 0.9994 0.9994 0.9994 0.9994 
0.9994 0.9994 0.9994 0.9994 0.9994 0.9994 0.9994 0.9994 0.9994 0.9994 0.9994 0.9994 0.9994 0.9994 0.9994 0.9994 0.9994 0.9994 0.9994 0.9994 0.9994 
0.9994 0.9994 0.9994 0.9994 0.9994 0.9994 0.9994 0.9994 0.9994 0.9994 0.9994 0.9994 0.9994 0.9994 0.9994 0.9994 0.9994 0.9994 0.9994 0.9994 0.9994 
</DataArray>
</PointData>
</Piece>
</ImageData>
</VTKFile>
