<VTKFile type="ImageData">
<ImageData Origin="0 -10 0" Spacing="0.5 0.5 1" WholeExtent="0 20 0 40 0 0">
<Piece Extent="0 20 0 40 0 0">
<PointData>
<DataArray Name="f" NumberOfComponents="1" format="ascii" type="Float64">
7.136e-06 7.136e-06 7.136e-06 7.136e-06 7.136e-06 7.136e-06 7.136e-06 7.136e-06 7.136e-06 7.136e-06 7.136e-06 7.136e-06 7.136e-06 7.136e-06 7.136e-06 7.136e-06 7.136e-06 7.136e-06 7.136e-06 7.136e-06 7.136e-06 
2.911e-05 2.911e-05 2.911e-05 2.911e-05 2.911e-05 2.911e-05 2.911e-05 2.911e-05 2.911e-05 2.911e-05 2.911e-05 2.911e-05 2.911e-05 2.911e-05 2.911e-05 2.911e-05 2.911e-05 2.911e-05 2.911e-05 2.911e-05 2.911e-05 
0.0001075 0.0001075 0.0001075 0.0001075 0.0001075 0.0001075 0.0001075 0.0001075 0.0001075 0.0001075 0.0001075 0.0001075 0.0001075 0.0001075 0.0001075 0.0001075 0.0001075 0.0001075 0.0001075 0.0001075 0.0001075 
0.0003597 0.0003597 0.0003597 0.0003597 0.0003597 0.0003597 0.0003597 0.0003597 0.0003597 0.0003597 0.0003597 0.0003597 0.0003597 0.0003597 0.0003597 0.0003597 0.0003597 0.0003597 0.0003597 0.0003597 0.0003597 
0.00109 0.00109 0.00109 0.00109 0.00109 0.00109 0.00109 0.00109 0.00109 0.00109 0.00109 0.00109 0.00109 0.00109 0.00109 0.00109 0.00109 0.00109 0.00109 0.00109 0.00109 
0.002995 0.002995 0.002995 0.002995 0.002995 0.002995 0.002995 0.002995 0.002995 0.002995 0.002995 0.002995 0.002995 0.002995 0.002995 0.002995 0.002995 0.002995 0.002995 0.002995 0.002995 
0.007453 0.007453 0.007453 0.007453 0.007453 0.007453 0.007453 0.007453 0.007453 0.007453 0.007453 0.007453 0.007453 0.007453 0.007453 0.007453 0.007453 0.007453 0.007453 0.007453 0.007453 
0.01679 0.01679 0.01679 0.01679 0.01679 0.01679 0.01679 0.01679 0.01679 0.01679 0.01679 0.01679 0.01679 0.01679 0.01679 0.01679 0.01679 0.01679 0.01679 0.01679 0.01679 
0.03423 0.03423 0.03423 0.03423 0.03423 0.03423 0.03423 0.03423 0.03423 0.03423 0.03423 0.03423 0.03423 0.03423 0.03423 0.03423 0.03423 0.03423 0.03423 0.03423 0.03423 
0.06303 0.06303 0.06303 0.06303 0.06303 0.06303 0.06303 0.06303 0.06303 0.06303 0.06303 0.06303 0.06303 0.06303 0.06303 0.06303 0.06303 0.06303 0.06303 0.06303 0.06303 
0.1047 0.1047 0.1047 0.1047 0.1047 0.1047 0.1047 0.1047 0.1047 0.1047 0.1047 0.1047 0.1047 0.1047 0.1047 0.1047 0.1047 0.1047 0.1047 0.1047 0.1047 
0.1567 0.1567 0.1567 0.1567 0.1567 0.1567 0.1567 0.1567 0.1567 0.1567 0.1567 0.1567 0.1567 0.1567 0.1567 0.1567 0.1567 0.1567 0.1567 0.1567 0.1567 
0.2106 0.2106 0.2106 0.2106 0.2106 0.2106 0.2106 0.2106 0.2106 0.2106 0.2106 0.2106 0.2106 0.2106 0.2106 0.2106 0.2106 0.2106 0.2106 0.2106 0.2106 
0.2536 0.2536 0.2536 0.2536 0.2536 0.2536 0.2536 0.2536 0.2536 0.2536 0.2536 0.2536 0.2536 0.2536 0.2536 0.2536 0.2536 0.2536 0.2536 0.2536 0.2536 
0.2729 0.2729 0.2729 0.2729 0.2729 0.2729 0.2729 0.2729 0.2729 0.2729 0.2729 0.2729 0.2729 0.2729 0.2729 0.2729 0.2729 0.2729 0.2729 0.2729 0.2729 
0.2615 0.2615 0.2615 0.2615 0.2615 0.2615 0.2615 0.2615 0.2615 0.2615 0.2615 0.2615 0.2615 0.2615 0.2615 0.2615 0.2615 0.2615 0.2615 0.2615 0.2615 
0.2221 0.2221 0.2221 0.2221 0.2221 0.2221 0.2221 0.2221 0.2221 0.2221 0.2221 0.2221 0.2221 0.2221 0.2221 0.2221 0.2221 0.2221 0.2221 0.2221 0.2221 
0.1666 0.1666 0.1666 0.1666 0.1666 0.1666 0.1666 0.1666 0.1666 0.1666 0.1666 0.1666 0.1666 0.1666 0.1666 0.1666 0.1666 0.1666 0.1666 0.1666 0.1666 
0.1098 0.1098 0.1098 0.1098 0.1098 0.1098 0.1098 0.1098 0.1098 0.1098 0.1098 0.1098 0.1098 0.1098 0.1098 0.1098 0.1098 0.1098 0.1098 0.1098 0.1098 
0.06317 0.06317 0.06317 0.06317 0.06317 0.06317 0.06317 0.06317 0.06317 0.06317 0.06317 0.06317 0.06317 0.06317 0.06317 0.06317 0.06317 0.06317 0.06317 0.06317 0.06317 
0.03157 0.03157 0.03157 0.03157 0.03157 0.03157 0.03157 0.03157 0.03157 0.03157 0.03157 0.03157 0.03157 0.03157 0.03157 0.03157 0.03157 0.03157 0.03157 0.03157 0.03157 
0.01361 0.01361 0.01361 0.01361 0.01361 0.01361 0.01361 0.01361 0.01361 0.01361 0.01361 0.01361 0.01361 0.01361 0.01361 0.01361 0.01361 0.01361 0.01361 0.01361 0.01361 
0.005026 0.005026 0.005026 0.005026 0.005026 0.005026 0.005026 0.005026 0.005026 0.005026 0.005026 0.005026 0.005026 0.005026 0.005026 0.005026 0.005026 0.005026 0.005026 0.005026 0.005026 
0.001578 0.001578 0.001578 0.001578 0.001578 0.001578 0.001578 0.001578 0.001578 0.001578 0.001578 0.001578 0.001578 0.001578 0.001578 0.001578 0.001578 0.001578 0.001578 0.001578 0.001578 
0.0004176 0.0004176 0.0004176 0.0004176 0.0004176 0.0004176 0.0004176 0.0004176 0.0004176 0.0004176 0.0004176 0.0004176 0.0004176 0.0004176 0.0004176 0.0004176 0.0004176 0.0004176 0.0004176 0.0004176 0.0004176 
9.247e-05 9.247e-05 9.247e-05 9.247e-05 9.247e-05 9.247e-05 9.247e-05 9.247e-05 9.247e-05 9.247e-05 9.247e-05 9.247e-05 9.247e-05 9.247e-05 9.247e-05 9.247e-05 9.247e-05 9.247e-05 9.247e-05 9.247e-05 9.247e-05 
1.699e-05 1.699e-05 1.699e-05 1.699e-05 1.699e-05 1.699e-05 1.699e-05 1.699e-05 1.699e-05 1.699e-05 1.699e-05 1.699e-05 1.699e-05 1.699e-05 1.699e-05 1.699e-05 1.699e-05 1.699e-05 1.699e-05 1.699e-05 1.699e-05 
2.569e-06 2.569e-06 2.569e-06 2.569e-06 2.569e-06 2.569e-06 2.569e-06 2.569e-06 2.569e-06 2.569e-06 2.569e-06 2.569e-06 2.569e-06 2.569e-06 2.569e-06 2.569e-06 2.569e-06 2.569e-06 2.569e-06 2.569e-06 2.569e-06 
3.173e-07 3.173e-07 3.173e-07 3.173e-07 3.173e-07 3.173e-07 3.173e-07 3.173e-07 3.173e-07 3.173e-07 3.173e-07 3.173e-07 3.173e-07 3.173e-07 3.173e-07 3.173e-07 3.173e-07 3.173e-07 3.173e-07 3.173e-07 3.173e-07 
3.178e-08 3.178e-08 3.178e-08 3.178e-08 3.178e-08 3.178e-08 3.178e-08 3.178e-08 3.178e-08 3.178e-08 3.178e-08 3.178e-08 3.178e-08 3.178e-08 3.178e-08 3.178e-08 3.178e-08 3.178e-08 3.178e-08 3.178e-08 3.178e-08 
2.565e-09 2.565e-09 2.565e-09 2.565e-09 2.565e-09 2.565e-09 2.565e-09 2.565e-09 2.565e-09 2.565e-09 2.565e-09 2.565e-09 2.565e-09 2.565e-09 2.565e-09 2.565e-09 2.565e-09 2.565e-09 2.565e-09 2.565e-09 2.565e-09 
1.658e-10 1.658e-10 1.658e-10 1.658e-10 1.658e-10 1.658e-10 1.658e-10 1.658e-10 1.658e-10 1.658e-10 1.658e-10 1.658e-10 1.658e-10 1.658e-10 1.658e-10 1.658e-10 1.658e-10 1.658e-10 1.658e-10 1.658e-10 1.658e-10 
8.737e-12 8.737e-12 8.737e-12 8.737e-12 8.737e-12 8.737e-12 8.737e-12 8.737e-12 8.737e-12 8.737e-12 8.737e-12 8.737e-12 8.737e-12 8.737e-12 8.737e-12 8.737e-12 8.737e-12 8.737e-12 8.737e-12 8.737e-12 8.737e-12 
2.499e-12 2.499e-12 2.499e-12 2.499e-12 2.499e-12 2.499e-12 2.499e-12 2.499e-12 2.499e-12 2.499e-12 2.499e-12 2.499e-12 2.499e-12 2.499e-12 2.499e-12 2.499e-12 2.499e-12 2.499e-12 2.499e-12 2.499e-12 2.499e-12 
2.072e-11 2.072e-11 2.072e-11 2.072e-11 2.072e-11 2.072e-11 2.072e-11 2.072e-11 2.072e-11 2.072e-11 2.072e-11 2.072e-11 2.072e-11 2.072e-11 2.072e-11 2.072e-11 2.072e-11 2.072e-11 2.072e-11 2.072e-11 2.072e-11 
1.774e-10 1.774e-10 1.774e-10 1.774e-10 1.774e-10 1.774e-10 1.774e-10 1.774e-10 1.774e-10 1.774e-10 1.774e-10 1.774e-10 1.774e-10 1.774e-10 1.774e-10 1.774e-10 1.774e-10 1.774e-10 1.774e-10 1.774e-10 1.774e-10 
1.357e-09 1.357e-09 1.357e-09 1.357e-09 1.357e-09 1.357e-09 1.357e-09 1.357e-09 1.357e-09 1.357e-09 1.357e-09 1.357e-09 1.357e-09 1.357e-09 1.357e-09 1.357e-09 1.357e-09 1.357e-09 1.357e-09 1.357e-09 1.357e-09 
9.299e-09 9.299e-09 9.299e-09 9.299e-09 9.299e-09 9.299e-09 9.299e-09 9.299e-09 9.299e-09 9.299e-09 9.299e-09 9.299e-09 9.299e-09 9.299e-09 9.299e-09 9.299e-09 9.299e-09 9.299e-09 9.299e-09 9.299e-09 9.299e-09 
5.721e-08 5.721e-08 5.721e-08 5.721e-08 5.721e-08 5.721e-08 5.721e-08 5.721e-08 5.721e-08 5.721e-08 5.721e-08 5.721e-08 5.721e-08 5.721e-08 5.721e-08 5.721e-08 5.721e-08 5.721e-08 5.721e-08 5.721e-08 5.721e-08 
3.168e-07 3.168e-07 3.168e-07 3.168e-07 3.168e-07 3.168e-07 3.168e-07 3.168e-07 3.168e-07 3.168e-07 3.168e-07 3.168e-07 3.168e-07 3.168e-07 3.168e-07 3.168e-07 3.168e-07 3.168e-07 3.168e-07 3.168e-07 3.168e-07 
1.582e-06 1.582e-06 1.582e-06 1.582e-06 1.582e-06 1.582e-06 1.582e-06 1.582e-06 1.582e-06 1.582e-06 1.582e-06 1.582e-06 1.582e-06 1.582e-06 1.582e-06 1.582e-06 1.582e-06 1.582e-06 1.582e-06 1.582e-06 1.582e-06 
</DataArray>
<DataArray Name="E" NumberOfComponents="1" format="ascii" type="Float64">
1 1 1 1 1 1 1 1 1 1 1 1 1 1 1 1 1 1 1 1 1 
1 1 1 1 1 1 1 1 1 1 1 1 1 1 1 1 1 1 1 1 1 
1 1 1 1 1 1 1 1 1 1 1 1 1 1 1 1 1 1 1 1 1 
1 1 1 1 1 1 1 1 1 1 1 1 1 1 1 1 1 1 1 1 1 
1 1 1 1 1 1 1 1 1 1 1 1 1 1 1 1 1 1 1 1 1 
1 1 1 1 1 1 1 1 1 1 1 1 1 1 1 1 1 1 1 1 1 
1 1 1 1 1 1 1 1 1 1 1 1 1 1 1 1 1 1 1 1 1 
1 1 1 1 1 1 1 1 1 1 1 1 1 1 1 1 1 1 1 1 1 
1 1 1 1 1 1 1 1 1 1 1 1 1 1 1 1 1 1 1 1 1 
1 1 1 1 1 1 1 1 1 1 1 1 1 1 1 1 1 1 1 1 1 
1 1 1 1 1 1 1 1 1 1 1 1 1 1 1 1 1 1 1 1 1 
1 1 1 1 1 1 1 1 1 1 1 1 1 1 1 1 1 1 1 1 1 
1 1 1 1 1 1 1 1 1 1 1 1 1 1 1 1 1 1 1 1 1 
1 1 1 1 1 1 1 1 1 1 1 1 1 1 1 1 1 1 1 1 1 
1 1 1 1 1 1 1 1 1 1 1 1 1 1 1 1 1 1 1 1 1 
1 1 1 1 1 1 1 1 1 1 1 1 1 1 1 1 1 1 1 1 1 
1 1 1 1 1 1 1 1 1 1 1 1 1 1 1 1 1 1 1 1 1 
1 1 1 1 1 1 1 1 1 1 1 1 1 1 1 1 1 1 1 1 1 
1 1 1 1 1 1 1 1 1 1 1 1 1 1 1 1 1 1 1 1 1 
1 1 1 1 1 1 1 1 1 1 1 1 1 1 1 1 1 1 1 1 1 
1 1 1 1 1 1 1 1 1 1 1 1 1 1 1 1 1 1 1 1 1 
1 1 1 1 1 1 1 1 1 1 1 1 1 1 1 1 1 1 1 1 1 
1 1 1 1 1 1 1 1 1 1 1 1 1 1 1 1 1 1 1 1 1 
1 1 1 1 1 1 1 1 1 1 1 1 1 1 1 1 1 1 1 1 1 
1 1 1 1 1 1 1 1 1 1 1 1 1 1 1 1 1 1 1 1 1 
1 1 1 1 1 1 1 1 1 1 1 1 1 1 1 1 1 1 1 1 1 
1 1 1 1 1 1 1 1 1 1 1 1 1 1 1 1 1 1 1 1 1 
1 1 1 1 1 1 1 1 1 1 1 1 1 1 1 1 1 1 1 1 1 
1 1 1 1 1 1 1 1 1 1 1 1 1 1 1 1 1 1 1 1 1 
1 1 1 1 1 1 1 1 1 1 1 1 1 1 1 1 1 1 1 1 1 
1 1 1 1 1 1 1 1 1 1 1 1 1 1 1 1 1 1 1 1 1 
1 1 1 1 1 1 1 1 1 1 1 1 1 1 1 1 1 1 1 1 1 
1 1 1 1 1 1 1 1 1 1 1 1 1 1 1 1 1 1 1 1 1 
1 1 1 1 1 1 1 1 1 1 1 1 1 1 1 1 1 1 1 1 1 
1 1 1 1 1 1 1 1 1 1 1 1 1 1 1 1 1 1 1 1 1 
1 1 1 1 1 1 1 1 1 1 1 1 1 1 1 1 1 1 1 1 1 
1 1 1 1 1 1 1 1 1 1 1 1 1 1 1 1 1 1 1 1 1 
1 1 1 1 1 1 1 1 1 1 1 1 1 1 1 1 1 1 1 1 1 
1 1 1 1 1 1 1 1 1 1 1 1 1 1 1 1 1 1 1 1 1 
1 1 1 1 1 1 1 1 1 1 1 1 1 1 1 1 1 1 1 1 1 
1 1 1 1 1 1 1 1 1 1 1 1 1 1 1 1 1 1 1 1 1 
</DataArray>
<DataArray Name="ne" NumberOfComponents="1" format="ascii" type="Float64">
1 1 1 1 1 1 1 1 1 1 1 1 1 1 1 1 1 1 1 1 1 
1 1 1 1 1 1 1 1 1 1 1 1 1 1 1 1 1 1 1 1 1 
1 1 1 1 1 1 1 1 1 1 1 1 1 1 1 1 1 1 1 1 1 
1 1 1 1 1 1 1 1 1 1 1 1 1 1 1 1 1 1 1 1 1 
1 1 1 1 1 1 1 1 1 1 1 1 1 1 1 1 1 1 1 1 1 
1 1 1 1 1 1 1 1 1 1 1 1 1 1 1 1 1 1 1 1 1 
1 1 1 1 1 1 1 1 1 1 1 1 1 1 1 1 1 1 1 1 1 
1 1 1 1 1 1 1 1 1 1 1 1 1 1 1 1 1 1 1 1 1 
1 1 1 1 1 1 1 1 1 1 1 1 1 1 1 1 1 1 1 1 1 
1 1 1 1 1 1 1 1 1 1 1 1 1 1 1 1 1 1 1 1 1 
1 1 1 1 1 1 1 1 1 1 1 1 1 1 1 1 1 1 1 1 1 
1 1 1 1 1 1 1 1 1 1 1 1 1 1 1 1 1 1 1 1 1 
1 1 1 1 1 1 1 1 1 1 1 1 1 1 1 1 1 1 1 1 1 
1 1 1 1 1 1 1 1 1 1 1 1 1 1 1 1 1 1 1 1 1 
1 1 1 1 1 1 1 1 1 1 1 1 1 1 1 1 1 1 1 1 1 
1 1 1 1 1 1 1 1 1 1 1 1 1 1 1 1 1 1 1 1 1 
1 1 1 1 1 1 1 1 1 1 1 1 1 1 1 1 1 1 1 1 1 
1 1 1 1 1 1 1 1 1 1 1 1 1 1 1 1 1 1 1 1 1 
1 1 1 1 1 1 1 1 1 1 1 1 1 1 1 1 1 1 1 1 1 
1 1 1 1 1 1 1 1 1 1 1 1 1 1 1 1 1 1 1 1 1 
1 1 1 1 1 1 1 1 1 1 1 1 1 1 1 1 1 1 1 1 1 
1 1 1 1 1 1 1 1 1 1 1 1 1 1 1 1 1 1 1 1 1 
1 1 1 1 1 1 1 1 1 1 1 1 1 1 1 1 1 1 1 1 1 
1 1 1 1 1 1 1 1 1 1 1 1 1 1 1 1 1 1 1 1 1 
1 1 1 1 1 1 1 1 1 1 1 1 1 1 1 1 1 1 1 1 1 
1 1 1 1 1 1 1 1 1 1 1 1 1 1 1 1 1 1 1 1 1 
1 1 1 1 1 1 1 1 1 1 1 1 1 1 1 1 1 1 1 1 1 
1 1 1 1 1 1 1 1 1 1 1 1 1 1 1 1 1 1 1 1 1 
1 1 1 1 1 1 1 1 1 1 1 1 1 1 1 1 1 1 1 1 1 
1 1 1 1 1 1 1 1 1 1 1 1 1 1 1 1 1 1 1 1 1 
1 1 1 1 1 1 1 1 1 1 1 1 1 1 1 1 1 1 1 1 1 
1 1 1 1 1 1 1 1 1 1 1 1 1 1 1 1 1 1 1 1 1 
1 1 1 1 1 1 1 1 1 1 1 1 1 1 1 1 1 1 1 1 1 
1 1 1 1 1 1 1 1 1 1 1 1 1 1 1 1 1 1 1 1 1 
1 1 1 1 1 1 1 1 1 1 1 1 1 1 1 1 1 1 1 1 1 
1 1 1 1 1 1 1 1 1 1 1 1 1 1 1 1 1 1 1 1 1 
1 1 1 1 1 1 1 1 1 1 1 1 1 1 1 1 1 1 1 1 1 
1 1 1 1 1 1 1 1 1 1 1 1 1 1 1 1 1 1 1 1 1 
1 1 1 1 1 1 1 1 1 1 1 1 1 1 1 1 1 1 1 1 1 
1 1 1 1 1 1 1 1 1 1 1 1 1 1 1 1 1 1 1 1 1 
1 1 1 1 1 1 1 1 1 1 1 1 1 1 1 1 1 1 1 1 1 
</DataArray>
</PointData>
</Piece>
</ImageData>
</VTKFile>
