<VTKFile type="ImageData">
<ImageData Origin="0 -10 0" Spacing="0.5 0.5 1" WholeExtent="0 20 0 40 0 0">
<Piece Extent="0 20 0 40 0 0">
<PointData>
<DataArray Name="f" NumberOfComponents="1" format="ascii" type="Float64">
6.807e-20 6.807e-20 6.807e-20 6.807e-20 6.807e-20 6.807e-20 6.807e-20 6.807e-20 6.807e-20 6.807e-20 6.807e-20 6.807e-20 6.807e-20 6.807e-20 6.807e-20 6.807e-20 6.807e-20 6.807e-20 6.807e-20 6.807e-20 6.807e-20 
5.495e-18 5.495e-18 5.495e-18 5.495e-18 5.495e-18 5.495e-18 5.495e-18 5.495e-18 5.495e-18 5.495e-18 5.495e-18 5.495e-18 5.495e-18 5.495e-18 5.495e-18 5.495e-18 5.495e-18 5.495e-18 5.495e-18 5.495e-18 5.495e-18 
3.47e-16 3.47e-16 3.47e-16 3.47e-16 3.47e-16 3.47e-16 3.47e-16 3.47e-16 3.47e-16 3.47e-16 3.47e-16 3.47e-16 3.47e-16 3.47e-16 3.47e-16 3.47e-16 3.47e-16 3.47e-16 3.47e-16 3.47e-16 3.47e-16 
1.716e-14 1.716e-14 1.716e-14 1.716e-14 1.716e-14 1.716e-14 1.716e-14 1.716e-14 1.716e-14 1.716e-14 1.716e-14 1.716e-14 1.716e-14 1.716e-14 1.716e-14 1.716e-14 1.716e-14 1.716e-14 1.716e-14 1.716e-14 1.716e-14 
6.65e-13 6.65e-13 6.65e-13 6.65e-13 6.65e-13 6.65e-13 6.65e-13 6.65e-13 6.65e-13 6.65e-13 6.65e-13 6.65e-13 6.65e-13 6.65e-13 6.65e-13 6.65e-13 6.65e-13 6.65e-13 6.65e-13 6.65e-13 6.65e-13 
2.025e-11 2.025e-11 2.025e-11 2.025e-11 2.025e-11 2.025e-11 2.025e-11 2.025e-11 2.025e-11 2.025e-11 2.025e-11 2.025e-11 2.025e-11 2.025e-11 2.025e-11 2.025e-11 2.025e-11 2.025e-11 2.025e-11 2.025e-11 2.025e-11 
4.85e-10 4.85e-10 4.85e-10 4.85e-10 4.85e-10 4.85e-10 4.85e-10 4.85e-10 4.85e-10 4.85e-10 4.85e-10 4.85e-10 4.85e-10 4.85e-10 4.85e-10 4.85e-10 4.85e-10 4.85e-10 4.85e-10 4.85e-10 4.85e-10 
9.16e-09 9.16e-09 9.16e-09 9.16e-09 9.16e-09 9.16e-09 9.16e-09 9.16e-09 9.16e-09 9.16e-09 9.16e-09 9.16e-09 9.16e-09 9.16e-09 9.16e-09 9.16e-09 9.16e-09 9.16e-09 9.16e-09 9.16e-09 9.16e-09 
1.367e-07 1.367e-07 1.367e-07 1.367e-07 1.367e-07 1.367e-07 1.367e-07 1.367e-07 1.367e-07 1.367e-07 1.367e-07 1.367e-07 1.367e-07 1.367e-07 1.367e-07 1.367e-07 1.367e-07 1.367e-07 1.367e-07 1.367e-07 1.367e-07 
1.617e-06 1.617e-06 1.617e-06 1.617e-06 1.617e-06 1.617e-06 1.617e-06 1.617e-06 1.617e-06 1.617e-06 1.617e-06 1.617e-06 1.617e-06 1.617e-06 1.617e-06 1.617e-06 1.617e-06 1.617e-06 1.617e-06 1.617e-06 1.617e-06 
1.519e-05 1.519e-05 1.519e-05 1.519e-05 1.519e-05 1.519e-05 1.519e-05 1.519e-05 1.519e-05 1.519e-05 1.519e-05 1.519e-05 1.519e-05 1.519e-05 1.519e-05 1.519e-05 1.519e-05 1.519e-05 1.519e-05 1.519e-05 1.519e-05 
0.0001137 0.0001137 0.0001137 0.0001137 0.0001137 0.0001137 0.0001137 0.0001137 0.0001137 0.0001137 0.0001137 0.0001137 0.0001137 0.0001137 0.0001137 0.0001137 0.0001137 0.0001137 0.0001137 0.0001137 0.0001137 
0.0006795 0.0006795 0.0006795 0.0006795 0.0006795 0.0006795 0.0006795 0.0006795 0.0006795 0.0006795 0.0006795 0.0006795 0.0006795 0.0006795 0.0006795 0.0006795 0.0006795 0.0006795 0.0006795 0.0006795 0.0006795 
0.003248 0.003248 0.003248 0.003248 0.003248 0.003248 0.003248 0.003248 0.003248 0.003248 0.003248 0.003248 0.003248 0.003248 0.003248 0.003248 0.003248 0.003248 0.003248 0.003248 0.003248 
0.01244 0.01244 0.01244 0.01244 0.01244 0.01244 0.01244 0.01244 0.01244 0.01244 0.01244 0.01244 0.01244 0.01244 0.01244 0.01244 0.01244 0.01244 0.01244 0.01244 0.01244 
0.0382 0.0382 0.0382 0.0382 0.0382 0.0382 0.0382 0.0382 0.0382 0.0382 0.0382 0.0382 0.0382 0.0382 0.0382 0.0382 0.0382 0.0382 0.0382 0.0382 0.0382 
0.09406 0.09406 0.09406 0.09406 0.09406 0.09406 0.09406 0.09406 0.09406 0.09406 0.09406 0.09406 0.09406 0.09406 0.09406 0.09406 0.09406 0.09406 0.09406 0.09406 0.09406 
0.1856 0.1856 0.1856 0.1856 0.1856 0.1856 0.1856 0.1856 0.1856 0.1856 0.1856 0.1856 0.1856 0.1856 0.1856 0.1856 0.1856 0.1856 0.1856 0.1856 0.1856 
0.2931 0.2931 0.2931 0.2931 0.2931 0.2931 0.2931 0.2931 0.2931 0.2931 0.2931 0.2931 0.2931 0.2931 0.2931 0.2931 0.2931 0.2931 0.2931 0.2931 0.2931 
0.3696 0.3696 0.3696 0.3696 0.3696 0.3696 0.3696 0.3696 0.3696 0.3696 0.3696 0.3696 0.3696 0.3696 0.3696 0.3696 0.3696 0.3696 0.3696 0.3696 0.3696 
0.3716 0.3716 0.3716 0.3716 0.3716 0.3716 0.3716 0.3716 0.3716 0.3716 0.3716 0.3716 0.3716 0.3716 0.3716 0.3716 0.3716 0.3716 0.3716 0.3716 0.3716 
0.2969 0.2969 0.2969 0.2969 0.2969 0.2969 0.2969 0.2969 0.2969 0.2969 0.2969 0.2969 0.2969 0.2969 0.2969 0.2969 0.2969 0.2969 0.2969 0.2969 0.2969 
0.1881 0.1881 0.1881 0.1881 0.1881 0.1881 0.1881 0.1881 0.1881 0.1881 0.1881 0.1881 0.1881 0.1881 0.1881 0.1881 0.1881 0.1881 0.1881 0.1881 0.1881 
0.0942 0.0942 0.0942 0.0942 0.0942 0.0942 0.0942 0.0942 0.0942 0.0942 0.0942 0.0942 0.0942 0.0942 0.0942 0.0942 0.0942 0.0942 0.0942 0.0942 0.0942 
0.03722 0.03722 0.03722 0.03722 0.03722 0.03722 0.03722 0.03722 0.03722 0.03722 0.03722 0.03722 0.03722 0.03722 0.03722 0.03722 0.03722 0.03722 0.03722 0.03722 0.03722 
0.01158 0.01158 0.01158 0.01158 0.01158 0.01158 0.01158 0.01158 0.01158 0.01158 0.01158 0.01158 0.01158 0.01158 0.01158 0.01158 0.01158 0.01158 0.01158 0.01158 0.01158 
0.002829 0.002829 0.002829 0.002829 0.002829 0.002829 0.002829 0.002829 0.002829 0.002829 0.002829 0.002829 0.002829 0.002829 0.002829 0.002829 0.002829 0.002829 0.002829 0.002829 0.002829 
0.0005421 0.0005421 0.0005421 0.0005421 0.0005421 0.0005421 0.0005421 0.0005421 0.0005421 0.0005421 0.0005421 0.0005421 0.0005421 0.0005421 0.0005421 0.0005421 0.0005421 0.0005421 0.0005421 0.0005421 0.0005421 
8.137e-05 8.137e-05 8.137e-05 8.137e-05 8.137e-05 8.137e-05 8.137e-05 8.137e-05 8.137e-05 8.137e-05 8.137e-05 8.137e-05 8.137e-05 8.137e-05 8.137e-05 8.137e-05 8.137e-05 8.137e-05 8.137e-05 8.137e-05 8.137e-05 
9.555e-06 9.555e-06 9.555e-06 9.555e-06 9.555e-06 9.555e-06 9.555e-06 9.555e-06 9.555e-06 9.555e-06 9.555e-06 9.555e-06 9.555e-06 9.555e-06 9.555e-06 9.555e-06 9.555e-06 9.555e-06 9.555e-06 9.555e-06 9.555e-06 
8.77e-07 8.77e-07 8.77e-07 8.77e-07 8.77e-07 8.77e-07 8.77e-07 8.77e-07 8.77e-07 8.77e-07 8.77e-07 8.77e-07 8.77e-07 8.77e-07 8.77e-07 8.77e-07 8.77e-07 8.77e-07 8.77e-07 8.77e-07 8.77e-07 
6.288e-08 6.288e-08 6.288e-08 6.288e-08 6.288e-08 6.288e-08 6.288e-08 6.288e-08 6.288e-08 6.288e-08 6.288e-08 6.288e-08 6.288e-08 6.288e-08 6.288e-08 6.288e-08 6.288e-08 6.288e-08 6.288e-08 6.288e-08 6.288e-08 
3.518e-09 3.518e-09 3.518e-09 3.518e-09 3.518e-09 3.518e-09 3.518e-09 3.518e-09 3.518e-09 3.518e-09 3.518e-09 3.518e-09 3.518e-09 3.518e-09 3.518e-09 3.518e-09 3.518e-09 3.518e-09 3.518e-09 3.518e-09 3.518e-09 
1.536e-10 1.536e-10 1.536e-10 1.536e-10 1.536e-10 1.536e-10 1.536e-10 1.536e-10 1.536e-10 1.536e-10 1.536e-10 1.536e-10 1.536e-10 1.536e-10 1.536e-10 1.536e-10 1.536e-10 1.536e-10 1.536e-10 1.536e-10 1.536e-10 
5.23e-12 5.23e-12 5.23e-12 5.23e-12 5.23e-12 5.23e-12 5.23e-12 5.23e-12 5.23e-12 5.23e-12 5.23e-12 5.23e-12 5.23e-12 5.23e-12 5.23e-12 5.23e-12 5.23e-12 5.23e-12 5.23e-12 5.23e-12 5.23e-12 
1.388e-13 1.388e-13 1.388e-13 1.388e-13 1.388e-13 1.388e-13 1.388e-13 1.388e-13 1.388e-13 1.388e-13 1.388e-13 1.388e-13 1.388e-13 1.388e-13 1.388e-13 1.388e-13 1.388e-13 1.388e-13 1.388e-13 1.388e-13 1.388e-13 
2.873e-15 2.873e-15 2.873e-15 2.873e-15 2.873e-15 2.873e-15 2.873e-15 2.873e-15 2.873e-15 2.873e-15 2.873e-15 2.873e-15 2.873e-15 2.873e-15 2.873e-15 2.873e-15 2.873e-15 2.873e-15 2.873e-15 2.873e-15 2.873e-15 
4.632e-17 4.632e-17 4.632e-17 4.632e-17 4.632e-17 4.632e-17 4.632e-17 4.632e-17 4.632e-17 4.632e-17 4.632e-17 4.632e-17 4.632e-17 4.632e-17 4.632e-17 4.632e-17 4.632e-17 4.632e-17 4.632e-17 4.632e-17 4.632e-17 
5.82e-19 5.82e-19 5.82e-19 5.82e-19 5.82e-19 5.82e-19 5.82e-19 5.82e-19 5.82e-19 5.82e-19 5.82e-19 5.82e-19 5.82e-19 5.82e-19 5.82e-19 5.82e-19 5.82e-19 5.82e-19 5.82e-19 5.82e-19 5.82e-19 
0 0 0 0 0 0 0 0 0 0 0 0 0 0 0 0 0 0 0 0 0 
0 0 0 0 0 0 0 0 0 0 0 0 0 0 0 0 0 0 0 0 0 
</DataArray>
<DataArray Name="E" NumberOfComponents="1" format="ascii" type="Float64">
1 1 1 1 1 1 1 1 1 1 1 1 1 1 1 1 1 1 1 1 1 
1 1 1 1 1 1 1 1 1 1 1 1 1 1 1 1 1 1 1 1 1 
1 1 1 1 1 1 1 1 1 1 1 1 1 1 1 1 1 1 1 1 1 
1 1 1 1 1 1 1 1 1 1 1 1 1 1 1 1 1 1 1 1 1 
1 1 1 1 1 1 1 1 1 1 1 1 1 1 1 1 1 1 1 1 1 
1 1 1 1 1 1 1 1 1 1 1 1 1 1 1 1 1 1 1 1 1 
1 1 1 1 1 1 1 1 1 1 1 1 1 1 1 1 1 1 1 1 1 
1 1 1 1 1 1 1 1 1 1 1 1 1 1 1 1 1 1 1 1 1 
1 1 1 1 1 1 1 1 1 1 1 1 1 1 1 1 1 1 1 1 1 
1 1 1 1 1 1 1 1 1 1 1 1 1 1 1 1 1 1 1 1 1 
1 1 1 1 1 1 1 1 1 1 1 1 1 1 1 1 1 1 1 1 1 
1 1 1 1 1 1 1 1 1 1 1 1 1 1 1 1 1 1 1 1 1 
1 1 1 1 1 1 1 1 1 1 1 1 1 1 1 1 1 1 1 1 1 
1 1 1 1 1 1 1 1 1 1 1 1 1 1 1 1 1 1 1 1 1 
1 1 1 1 1 1 1 1 1 1 1 1 1 1 1 1 1 1 1 1 1 
1 1 1 1 1 1 1 1 1 1 1 1 1 1 1 1 1 1 1 1 1 
1 1 1 1 1 1 1 1 1 1 1 1 1 1 1 1 1 1 1 1 1 
1 1 1 1 1 1 1 1 1 1 1 1 1 1 1 1 1 1 1 1 1 
1 1 1 1 1 1 1 1 1 1 1 1 1 1 1 1 1 1 1 1 1 
1 1 1 1 1 1 1 1 1 1 1 1 1 1 1 1 1 1 1 1 1 
1 1 1 1 1 1 1 1 1 1 1 1 1 1 1 1 1 1 1 1 1 
1 1 1 1 1 1 1 1 1 1 1 1 1 1 1 1 1 1 1 1 1 
1 1 1 1 1 1 1 1 1 1 1 1 1 1 1 1 1 1 1 1 1 
1 1 1 1 1 1 1 1 1 1 1 1 1 1 1 1 1 1 1 1 1 
1 1 1 1 1 1 1 1 1 1 1 1 1 1 1 1 1 1 1 1 1 
1 1 1 1 1 1 1 1 1 1 1 1 1 1 1 1 1 1 1 1 1 
1 1 1 1 1 1 1 1 1 1 1 1 1 1 1 1 1 1 1 1 1 
1 1 1 1 1 1 1 1 1 1 1 1 1 1 1 1 1 1 1 1 1 
1 1 1 1 1 1 1 1 1 1 1 1 1 1 1 1 1 1 1 1 1 
1 1 1 1 1 1 1 1 1 1 1 1 1 1 1 1 1 1 1 1 1 
1 1 1 1 1 1 1 1 1 1 1 1 1 1 1 1 1 1 1 1 1 
1 1 1 1 1 1 1 1 1 1 1 1 1 1 1 1 1 1 1 1 1 
1 1 1 1 1 1 1 1 1 1 1 1 1 1 1 1 1 1 1 1 1 
1 1 1 1 1 1 1 1 1 1 1 1 1 1 1 1 1 1 1 1 1 
1 1 1 1 1 1 1 1 1 1 1 1 1 1 1 1 1 1 1 1 1 
1 1 1 1 1 1 1 1 1 1 1 1 1 1 1 1 1 1 1 1 1 
1 1 1 1 1 1 1 1 1 1 1 1 1 1 1 1 1 1 1 1 1 
1 1 1 1 1 1 1 1 1 1 1 1 1 1 1 1 1 1 1 1 1 
1 1 1 1 1 1 1 1 1 1 1 1 1 1 1 1 1 1 1 1 1 
1 1 1 1 1 1 1 1 1 1 1 1 1 1 1 1 1 1 1 1 1 
1 1 1 1 1 1 1 1 1 1 1 1 1 1 1 1 1 1 1 1 1 
</DataArray>
<DataArray Name="ne" NumberOfComponents="1" format="ascii" type="Float64">
1 1 1 1 1 1 1 1 1 1 1 1 1 1 1 1 1 1 1 1 1 
1 1 1 1 1 1 1 1 1 1 1 1 1 1 1 1 1 1 1 1 1 
1 1 1 1 1 1 1 1 1 1 1 1 1 1 1 1 1 1 1 1 1 
1 1 1 1 1 1 1 1 1 1 1 1 1 1 1 1 1 1 1 1 1 
1 1 1 1 1 1 1 1 1 1 1 1 1 1 1 1 1 1 1 1 1 
1 1 1 1 1 1 1 1 1 1 1 1 1 1 1 1 1 1 1 1 1 
1 1 1 1 1 1 1 1 1 1 1 1 1 1 1 1 1 1 1 1 1 
1 1 1 1 1 1 1 1 1 1 1 1 1 1 1 1 1 1 1 1 1 
1 1 1 1 1 1 1 1 1 1 1 1 1 1 1 1 1 1 1 1 1 
1 1 1 1 1 1 1 1 1 1 1 1 1 1 1 1 1 1 1 1 1 
1 1 1 1 1 1 1 1 1 1 1 1 1 1 1 1 1 1 1 1 1 
1 1 1 1 1 1 1 1 1 1 1 1 1 1 1 1 1 1 1 1 1 
1 1 1 1 1 1 1 1 1 1 1 1 1 1 1 1 1 1 1 1 1 
1 1 1 1 1 1 1 1 1 1 1 1 1 1 1 1 1 1 1 1 1 
1 1 1 1 1 1 1 1 1 1 1 1 1 1 1 1 1 1 1 1 1 
1 1 1 1 1 1 1 1 1 1 1 1 1 1 1 1 1 1 1 1 1 
1 1 1 1 1 1 1 1 1 1 1 1 1 1 1 1 1 1 1 1 1 
1 1 1 1 1 1 1 1 1 1 1 1 1 1 1 1 1 1 1 1 1 
1 1 1 1 1 1 1 1 1 1 1 1 1 1 1 1 1 1 1 1 1 
1 1 1 1 1 1 1 1 1 1 1 1 1 1 1 1 1 1 1 1 1 
1 1 1 1 1 1 1 1 1 1 1 1 1 1 1 1 1 1 1 1 1 
1 1 1 1 1 1 1 1 1 1 1 1 1 1 1 1 1 1 1 1 1 
1 1 1 1 1 1 1 1 1 1 1 1 1 1 1 1 1 1 1 1 1 
1 1 1 1 1 1 1 1 1 1 1 1 1 1 1 1 1 1 1 1 1 
1 1 1 1 1 1 1 1 1 1 1 1 1 1 1 1 1 1 1 1 1 
1 1 1 1 1 1 1 1 1 1 1 1 1 1 1 1 1 1 1 1 1 
1 1 1 1 1 1 1 1 1 1 1 1 1 1 1 1 1 1 1 1 1 
1 1 1 1 1 1 1 1 1 1 1 1 1 1 1 1 1 1 1 1 1 
1 1 1 1 1 1 1 1 1 1 1 1 1 1 1 1 1 1 1 1 1 
1 1 1 1 1 1 1 1 1 1 1 1 1 1 1 1 1 1 1 1 1 
1 1 1 1 1 1 1 1 1 1 1 1 1 1 1 1 1 1 1 1 1 
1 1 1 1 1 1 1 1 1 1 1 1 1 1 1 1 1 1 1 1 1 
1 1 1 1 1 1 1 1 1 1 1 1 1 1 1 1 1 1 1 1 1 
1 1 1 1 1 1 1 1 1 1 1 1 1 1 1 1 1 1 1 1 1 
1 1 1 1 1 1 1 1 1 1 1 1 1 1 1 1 1 1 1 1 1 
1 1 1 1 1 1 1 1 1 1 1 1 1 1 1 1 1 1 1 1 1 
1 1 1 1 1 1 1 1 1 1 1 1 1 1 1 1 1 1 1 1 1 
1 1 1 1 1 1 1 1 1 1 1 1 1 1 1 1 1 1 1 1 1 
1 1 1 1 1 1 1 1 1 1 1 1 1 1 1 1 1 1 1 1 1 
1 1 1 1 1 1 1 1 1 1 1 1 1 1 1 1 1 1 1 1 1 
1 1 1 1 1 1 1 1 1 1 1 1 1 1 1 1 1 1 1 1 1 
</DataArray>
</PointData>
</Piece>
</ImageData>
</VTKFile>
