<VTKFile type="ImageData">
<ImageData Origin="0 -10 0" Spacing="0.5 0.5 1" WholeExtent="0 20 0 40 0 0">
<Piece Extent="0 20 0 40 0 0">
<PointData>
<DataArray Name="f" NumberOfComponents="1" format="ascii" type="Float64">
0.001616 0.001616 0.001616 0.001616 0.001616 0.001616 0.001616 0.001616 0.001616 0.001616 0.001616 0.001616 0.001616 0.001616 0.001616 0.001616 0.001616 0.001616 0.001616 0.001616 0.001616 
0.0008082 0.0008082 0.0008082 0.0008083 0.0008083 0.0008083 0.0008083 0.0008083 0.0008083 0.0008083 0.0008083 0.0008083 0.0008083 0.0008083 0.0008083 0.0008083 0.0008083 0.0008083 0.0008083 0.0008083 0.0008082 
0.0003848 0.0003848 0.0003848 0.0003848 0.0003848 0.0003848 0.0003848 0.0003848 0.0003848 0.0003848 0.0003848 0.0003848 0.0003848 0.0003848 0.0003848 0.0003848 0.0003848 0.0003848 0.0003848 0.0003848 0.0003848 
0.0001744 0.0001744 0.0001744 0.0001744 0.0001744 0.0001744 0.0001744 0.0001744 0.0001744 0.0001744 0.0001744 0.0001744 0.0001744 0.0001744 0.0001744 0.0001744 0.0001744 0.0001744 0.0001744 0.0001744 0.0001744 
7.58e-05 7.58e-05 7.58e-05 7.58e-05 7.58e-05 7.581e-05 7.581e-05 7.581e-05 7.581e-05 7.581e-05 7.581e-05 7.581e-05 7.581e-05 7.581e-05 7.581e-05 7.581e-05 7.581e-05 7.581e-05 7.58e-05 7.58e-05 7.58e-05 
3.314e-05 3.314e-05 3.314e-05 3.314e-05 3.314e-05 3.314e-05 3.314e-05 3.314e-05 3.314e-05 3.314e-05 3.314e-05 3.314e-05 3.314e-05 3.314e-05 3.314e-05 3.314e-05 3.314e-05 3.314e-05 3.314e-05 3.314e-05 3.314e-05 
1.872e-05 1.872e-05 1.872e-05 1.872e-05 1.872e-05 1.872e-05 1.872e-05 1.872e-05 1.872e-05 1.872e-05 1.872e-05 1.872e-05 1.872e-05 1.872e-05 1.872e-05 1.872e-05 1.872e-05 1.872e-05 1.872e-05 1.872e-05 1.872e-05 
2.214e-05 2.214e-05 2.214e-05 2.214e-05 2.214e-05 2.214e-05 2.214e-05 2.214e-05 2.214e-05 2.214e-05 2.214e-05 2.214e-05 2.214e-05 2.214e-05 2.214e-05 2.214e-05 2.214e-05 2.214e-05 2.214e-05 2.214e-05 2.214e-05 
4.551e-05 4.551e-05 4.551e-05 4.551e-05 4.551e-05 4.551e-05 4.551e-05 4.551e-05 4.551e-05 4.551e-05 4.551e-05 4.551e-05 4.551e-05 4.551e-05 4.551e-05 4.551e-05 4.551e-05 4.551e-05 4.551e-05 4.551e-05 4.551e-05 
0.0001043 0.0001043 0.0001043 0.0001043 0.0001043 0.0001043 0.0001043 0.0001043 0.0001043 0.0001043 0.0001043 0.0001043 0.0001043 0.0001043 0.0001043 0.0001043 0.0001043 0.0001043 0.0001043 0.0001043 0.0001043 
0.0002336 0.0002336 0.0002336 0.0002336 0.0002336 0.0002336 0.0002336 0.0002336 0.0002336 0.0002336 0.0002336 0.0002336 0.0002336 0.0002336 0.0002336 0.0002336 0.0002336 0.0002336 0.0002336 0.0002336 0.0002336 
0.0005005 0.0005005 0.0005005 0.0005005 0.0005005 0.0005005 0.0005005 0.0005004 0.0005004 0.0005004 0.0005004 0.0005004 0.0005004 0.0005004 0.0005004 0.0005004 0.0005004 0.0005004 0.0005004 0.0005005 0.0005005 
0.001023 0.001023 0.001023 0.001023 0.001023 0.001023 0.001023 0.001023 0.001023 0.001023 0.001023 0.001023 0.001023 0.001023 0.001023 0.001023 0.001023 0.001023 0.001023 0.001023 0.001023 
0.001994 0.001994 0.001994 0.001994 0.001994 0.001994 0.001994 0.001994 0.001994 0.001994 0.001994 0.001994 0.001994 0.001994 0.001994 0.001994 0.001994 0.001994 0.001994 0.001994 0.001994 
0.003709 0.003709 0.003709 0.003709 0.003709 0.003709 0.003709 0.003709 0.003709 0.003709 0.003709 0.003709 0.003709 0.003709 0.003709 0.003709 0.003709 0.003709 0.003709 0.003709 0.003709 
0.006582 0.006582 0.006582 0.006582 0.006582 0.006581 0.006581 0.006581 0.006581 0.006581 0.006581 0.006581 0.006581 0.006581 0.006581 0.006581 0.006581 0.006581 0.006581 0.006581 0.006582 
0.01114 0.01114 0.01114 0.01114 0.01114 0.01114 0.01114 0.01114 0.01114 0.01114 0.01114 0.01114 0.01114 0.01114 0.01114 0.01114 0.01114 0.01114 0.01114 0.01114 0.01114 
0.01801 0.01801 0.01801 0.01801 0.01801 0.01801 0.01801 0.01801 0.01801 0.01801 0.01801 0.01801 0.01801 0.01801 0.01801 0.01801 0.01801 0.01801 0.01801 0.01801 0.01801 
0.02779 0.02779 0.02779 0.02779 0.02779 0.02779 0.02779 0.02779 0.02779 0.02779 0.02779 0.02779 0.02779 0.02779 0.02779 0.02779 0.02779 0.02779 0.02779 0.02779 0.02779 
0.04092 0.04092 0.04092 0.04092 0.04092 0.04092 0.04092 0.04092 0.04092 0.04092 0.04092 0.04092 0.04092 0.04092 0.04092 0.04092 0.04092 0.04092 0.04092 0.04092 0.04092 
0.05754 0.05754 0.05754 0.05754 0.05754 0.05754 0.05754 0.05754 0.05754 0.05754 0.05754 0.05754 0.05754 0.05754 0.05754 0.05754 0.05754 0.05754 0.05754 0.05754 0.05754 
0.07725 0.07725 0.07725 0.07725 0.07725 0.07725 0.07725 0.07725 0.07725 0.07725 0.07725 0.07725 0.07725 0.07725 0.07725 0.07725 0.07725 0.07725 0.07725 0.07725 0.07725 
0.09903 0.09904 0.09904 0.09904 0.09904 0.09904 0.09904 0.09904 0.09903 0.09903 0.09903 0.09903 0.09903 0.09903 0.09903 0.09903 0.09903 0.09903 0.09903 0.09903 0.09903 
0.1212 0.1212 0.1212 0.1212 0.1212 0.1212 0.1212 0.1212 0.1212 0.1212 0.1212 0.1212 0.1212 0.1212 0.1212 0.1212 0.1212 0.1212 0.1212 0.1212 0.1212 
0.1417 0.1417 0.1417 0.1417 0.1417 0.1417 0.1417 0.1417 0.1417 0.1417 0.1417 0.1417 0.1417 0.1417 0.1417 0.1417 0.1417 0.1417 0.1417 0.1417 0.1417 
0.1582 0.1582 0.1582 0.1582 0.1582 0.1582 0.1582 0.1582 0.1582 0.1582 0.1582 0.1582 0.1582 0.1582 0.1582 0.1582 0.1582 0.1582 0.1582 0.1582 0.1582 
0.1686 0.1686 0.1686 0.1686 0.1686 0.1686 0.1686 0.1686 0.1686 0.1686 0.1686 0.1686 0.1686 0.1686 0.1686 0.1686 0.1686 0.1686 0.1686 0.1686 0.1686 
0.1717 0.1717 0.1717 0.1717 0.1717 0.1717 0.1717 0.1717 0.1717 0.1717 0.1717 0.1717 0.1717 0.1717 0.1717 0.1717 0.1717 0.1717 0.1717 0.1717 0.1717 
0.1668 0.1668 0.1668 0.1668 0.1668 0.1668 0.1668 0.1668 0.1668 0.1668 0.1668 0.1668 0.1668 0.1668 0.1668 0.1668 0.1668 0.1668 0.1668 0.1668 0.1668 
0.1548 0.1548 0.1548 0.1548 0.1548 0.1548 0.1548 0.1548 0.1548 0.1548 0.1548 0.1548 0.1548 0.1548 0.1548 0.1548 0.1548 0.1548 0.1548 0.1548 0.1548 
0.1371 0.1371 0.1371 0.1371 0.1371 0.1371 0.1371 0.1371 0.1371 0.1371 0.1371 0.1371 0.1371 0.1371 0.1371 0.1371 0.1371 0.1371 0.1371 0.1371 0.1371 
0.116 0.116 0.116 0.116 0.116 0.116 0.116 0.116 0.116 0.116 0.116 0.116 0.116 0.116 0.116 0.116 0.116 0.116 0.116 0.116 0.116 
0.0936 0.0936 0.0936 0.0936 0.0936 0.0936 0.0936 0.0936 0.0936 0.0936 0.0936 0.0936 0.0936 0.0936 0.0936 0.0936 0.0936 0.0936 0.0936 0.0936 0.0936 
0.0721 0.0721 0.0721 0.0721 0.0721 0.0721 0.0721 0.0721 0.0721 0.0721 0.0721 0.0721 0.0721 0.0721 0.0721 0.0721 0.0721 0.0721 0.0721 0.0721 0.0721 
0.05299 0.05299 0.05299 0.05299 0.05299 0.05298 0.05298 0.05298 0.05298 0.05299 0.05299 0.05299 0.05299 0.05299 0.05299 0.05299 0.05299 0.05299 0.05299 0.05299 0.05299 
0.03715 0.03715 0.03715 0.03715 0.03715 0.03715 0.03715 0.03715 0.03715 0.03715 0.03715 0.03715 0.03715 0.03715 0.03715 0.03715 0.03715 0.03715 0.03715 0.03715 0.03715 
0.02484 0.02484 0.02484 0.02484 0.02484 0.02484 0.02484 0.02484 0.02484 0.02484 0.02484 0.02484 0.02484 0.02484 0.02484 0.02484 0.02484 0.02484 0.02484 0.02484 0.02484 
0.01584 0.01584 0.01584 0.01584 0.01584 0.01584 0.01584 0.01584 0.01584 0.01584 0.01584 0.01584 0.01584 0.01584 0.01584 0.01584 0.01584 0.01584 0.01584 0.01584 0.01584 
0.009624 0.009624 0.009624 0.009624 0.009624 0.009624 0.009624 0.009624 0.009624 0.009624 0.009624 0.009624 0.009624 0.009624 0.009624 0.009624 0.009624 0.009624 0.009624 0.009624 0.009624 
0.005574 0.005574 0.005574 0.005574 0.005574 0.005574 0.005574 0.005574 0.005574 0.005574 0.005574 0.005574 0.005574 0.005574 0.005574 0.005574 0.005574 0.005574 0.005574 0.005574 0.005574 
0.003075 0.003075 0.003075 0.003075 0.003075 0.003075 0.003075 0.003075 0.003075 0.003075 0.003075 0.003075 0.003075 0.003075 0.003075 0.003075 0.003075 0.003075 0.003075 0.003075 0.003075 
</DataArray>
<DataArray Name="E" NumberOfComponents="1" format="ascii" type="Float64">
-2.081 -2.081 -2.081 -2.081 -2.081 -2.081 -2.081 -2.081 -2.081 -2.081 -2.081 -2.081 -2.081 -2.081 -2.081 -2.081 -2.081 -2.081 -2.081 -2.081 -2.081 
-2.081 -2.081 -2.081 -2.081 -2.081 -2.081 -2.081 -2.081 -2.081 -2.081 -2.081 -2.081 -2.081 -2.081 -2.081 -2.081 -2.081 -2.081 -2.081 -2.081 -2.081 
-2.081 -2.081 -2.081 -2.081 -2.081 -2.081 -2.081 -2.081 -2.081 -2.081 -2.081 -2.081 -2.081 -2.081 -2.081 -2.081 -2.081 -2.081 -2.081 -2.081 -2.081 
-2.081 -2.081 -2.081 -2.081 -2.081 -2.081 -2.081 -2.081 -2.081 -2.081 -2.081 -2.081 -2.081 -2.081 -2.081 -2.081 -2.081 -2.081 -2.081 -2.081 -2.081 
-2.081 -2.081 -2.081 -2.081 -2.081 -2.081 -2.081 -2.081 -2.081 -2.081 -2.081 -2.081 -2.081 -2.081 -2.081 -2.081 -2.081 -2.081 -2.081 -2.081 -2.081 
-2.081 -2.081 -2.081 -2.081 -2.081 -2.081 -2.081 -2.081 -2.081 -2.081 -2.081 -2.081 -2.081 -2.081 -2.081 -2.081 -2.081 -2.081 -2.081 -2.081 -2.081 
-2.081 -2.081 -2.081 -2.081 -2.081 -2.081 -2.081 -2.081 -2.081 -2.081 -2.081 -2.081 -2.081 -2.081 -2.081 -2.081 -2.081 -2.081 -2.081 -2.081 -2.081 
-2.081 -2.081 -2.081 -2.081 -2.081 -2.081 -2.081 -2.081 -2.081 -2.081 -2.081 -2.081 -2.081 -2.081 -2.081 -2.081 -2.081 -2.081 -2.081 -2.081 -2.081 
-2.081 -2.081 -2.081 -2.081 -2.081 -2.081 -2.081 -2.081 -2.081 -2.081 -2.081 -2.081 -2.081 -2.081 -2.081 -2.081 -2.081 -2.081 -2.081 -2.081 -2.081 
-2.081 -2.081 -2.081 -2.081 -2.081 -2.081 -2.081 -2.081 -2.081 -2.081 -2.081 -2.081 -2.081 -2.081 -2.081 -2.081 -2.081 -2.081 -2.081 -2.081 -2.081 
-2.081 -2.081 -2.081 -2.081 -2.081 -2.081 -2.081 -2.081 -2.081 -2.081 -2.081 -2.081 -2.081 -2.081 -2.081 -2.081 -2.081 -2.081 -2.081 -2.081 -2.081 
-2.081 -2.081 -2.081 -2.081 -2.081 -2.081 -2.081 -2.081 -2.081 -2.081 -2.081 -2.081 -2.081 -2.081 -2.081 -2.081 -2.081 -2.081 -2.081 -2.081 -2.081 
-2.081 -2.081 -2.081 -2.081 -2.081 -2.081 -2.081 -2.081 -2.081 -2.081 -2.081 -2.081 -2.081 -2.081 -2.081 -2.081 -2.081 -2.081 -2.081 -2.081 -2.081 
-2.081 -2.081 -2.081 -2.081 -2.081 -2.081 -2.081 -2.081 -2.081 -2.081 -2.081 -2.081 -2.081 -2.081 -2.081 -2.081 -2.081 -2.081 -2.081 -2.081 -2.081 
-2.081 -2.081 -2.081 -2.081 -2.081 -2.081 -2.081 -2.081 -2.081 -2.081 -2.081 -2.081 -2.081 -2.081 -2.081 -2.081 -2.081 -2.081 -2.081 -2.081 -2.081 
-2.081 -2.081 -2.081 -2.081 -2.081 -2.081 -2.081 -2.081 -2.081 -2.081 -2.081 -2.081 -2.081 -2.081 -2.081 -2.081 -2.081 -2.081 -2.081 -2.081 -2.081 
-2.081 -2.081 -2.081 -2.081 -2.081 -2.081 -2.081 -2.081 -2.081 -2.081 -2.081 -2.081 -2.081 -2.081 -2.081 -2.081 -2.081 -2.081 -2.081 -2.081 -2.081 
-2.081 -2.081 -2.081 -2.081 -2.081 -2.081 -2.081 -2.081 -2.081 -2.081 -2.081 -2.081 -2.081 -2.081 -2.081 -2.081 -2.081 -2.081 -2.081 -2.081 -2.081 
-2.081 -2.081 -2.081 -2.081 -2.081 -2.081 -2.081 -2.081 -2.081 -2.081 -2.081 -2.081 -2.081 -2.081 -2.081 -2.081 -2.081 -2.081 -2.081 -2.081 -2.081 
-2.081 -2.081 -2.081 -2.081 -2.081 -2.081 -2.081 -2.081 -2.081 -2.081 -2.081 -2.081 -2.081 -2.081 -2.081 -2.081 -2.081 -2.081 -2.081 -2.081 -2.081 
-2.081 -2.081 -2.081 -2.081 -2.081 -2.081 -2.081 -2.081 -2.081 -2.081 -2.081 -2.081 -2.081 -2.081 -2.081 -2.081 -2.081 -2.081 -2.081 -2.081 -2.081 
-2.081 -2.081 -2.081 -2.081 -2.081 -2.081 -2.081 -2.081 -2.081 -2.081 -2.081 -2.081 -2.081 -2.081 -2.081 -2.081 -2.081 -2.081 -2.081 -2.081 -2.081 
-2.081 -2.081 -2.081 -2.081 -2.081 -2.081 -2.081 -2.081 -2.081 -2.081 -2.081 -2.081 -2.081 -2.081 -2.081 -2.081 -2.081 -2.081 -2.081 -2.081 -2.081 
-2.081 -2.081 -2.081 -2.081 -2.081 -2.081 -2.081 -2.081 -2.081 -2.081 -2.081 -2.081 -2.081 -2.081 -2.081 -2.081 -2.081 -2.081 -2.081 -2.081 -2.081 
-2.081 -2.081 -2.081 -2.081 -2.081 -2.081 -2.081 -2.081 -2.081 -2.081 -2.081 -2.081 -2.081 -2.081 -2.081 -2.081 -2.081 -2.081 -2.081 -2.081 -2.081 
-2.081 -2.081 -2.081 -2.081 -2.081 -2.081 -2.081 -2.081 -2.081 -2.081 -2.081 -2.081 -2.081 -2.081 -2.081 -2.081 -2.081 -2.081 -2.081 -2.081 -2.081 
-2.081 -2.081 -2.081 -2.081 -2.081 -2.081 -2.081 -2.081 -2.081 -2.081 -2.081 -2.081 -2.081 -2.081 -2.081 -2.081 -2.081 -2.081 -2.081 -2.081 -2.081 
-2.081 -2.081 -2.081 -2.081 -2.081 -2.081 -2.081 -2.081 -2.081 -2.081 -2.081 -2.081 -2.081 -2.081 -2.081 -2.081 -2.081 -2.081 -2.081 -2.081 -2.081 
-2.081 -2.081 -2.081 -2.081 -2.081 -2.081 -2.081 -2.081 -2.081 -2.081 -2.081 -2.081 -2.081 -2.081 -2.081 -2.081 -2.081 -2.081 -2.081 -2.081 -2.081 
-2.081 -2.081 -2.081 -2.081 -2.081 -2.081 -2.081 -2.081 -2.081 -2.081 -2.081 -2.081 -2.081 -2.081 -2.081 -2.081 -2.081 -2.081 -2.081 -2.081 -2.081 
-2.081 -2.081 -2.081 -2.081 -2.081 -2.081 -2.081 -2.081 -2.081 -2.081 -2.081 -2.081 -2.081 -2.081 -2.081 -2.081 -2.081 -2.081 -2.081 -2.081 -2.081 
-2.081 -2.081 -2.081 -2.081 -2.081 -2.081 -2.081 -2.081 -2.081 -2.081 -2.081 -2.081 -2.081 -2.081 -2.081 -2.081 -2.081 -2.081 -2.081 -2.081 -2.081 
-2.081 -2.081 -2.081 -2.081 -2.081 -2.081 -2.081 -2.081 -2.081 -2.081 -2.081 -2.081 -2.081 -2.081 -2.081 -2.081 -2.081 -2.081 -2.081 -2.081 -2.081 
-2.081 -2.081 -2.081 -2.081 -2.081 -2.081 -2.081 -2.081 -2.081 -2.081 -2.081 -2.081 -2.081 -2.081 -2.081 -2.081 -2.081 -2.081 -2.081 -2.081 -2.081 
-2.081 -2.081 -2.081 -2.081 -2.081 -2.081 -2.081 -2.081 -2.081 -2.081 -2.081 -2.081 -2.081 -2.081 -2.081 -2.081 -2.081 -2.081 -2.081 -2.081 -2.081 
-2.081 -2.081 -2.081 -2.081 -2.081 -2.081 -2.081 -2.081 -2.081 -2.081 -2.081 -2.081 -2.081 -2.081 -2.081 -2.081 -2.081 -2.081 -2.081 -2.081 -2.081 
-2.081 -2.081 -2.081 -2.081 -2.081 -2.081 -2.081 -2.081 -2.081 -2.081 -2.081 -2.081 -2.081 -2.081 -2.081 -2.081 -2.081 -2.081 -2.081 -2.081 -2.081 
-2.081 -2.081 -2.081 -2.081 -2.081 -2.081 -2.081 -2.081 -2.081 -2.081 -2.081 -2.081 -2.081 -2.081 -2.081 -2.081 -2.081 -2.081 -2.081 -2.081 -2.081 
-2.081 -2.081 -2.081 -2.081 -2.081 -2.081 -2.081 -2.081 -2.081 -2.081 -2.081 -2.081 -2.081 -2.081 -2.081 -2.081 -2.081 -2.081 -2.081 -2.081 -2.081 
-2.081 -2.081 -2.081 -2.081 -2.081 -2.081 -2.081 -2.081 -2.081 -2.081 -2.081 -2.081 -2.081 -2.081 -2.081 -2.081 -2.081 -2.081 -2.081 -2.081 -2.081 
-2.081 -2.081 -2.081 -2.081 -2.081 -2.081 -2.081 -2.081 -2.081 -2.081 -2.081 -2.081 -2.081 -2.081 -2.081 -2.081 -2.081 -2.081 -2.081 -2.081 -2.081 
</DataArray>
<DataArray Name="ne" NumberOfComponents="1" format="ascii" type="Float64">
0.9992 0.9992 0.9992 0.9992 0.9992 0.9992 0.9992 0.9992 0.9992 0.9992 0.9992 0.9992 0.9992 0.9992 0.9992 0.9992 0.9992 0.9992 0.9992 0.9992 0.9992 
0.9992 0.9992 0.9992 0.9992 0.9992 0.9992 0.9992 0.9992 0.9992 0.9992 0.9992 0.9992 0.9992 0.9992 0.9992 0.9992 0.9992 0.9992 0.9992 0.9992 0.9992 
0.9992 0.9992 0.9992 0.9992 0.9992 0.9992 0.9992 0.9992 0.9992 0.9992 0.9992 0.9992 0.9992 0.9992 0.9992 0.9992 0.9992 0.9992 0.9992 0.9992 0.9992 
0.9992 0.9992 0.9992 0.9992 0.9992 0.9992 0.9992 0.9992 0.9992 0.9992 0.9992 0.9992 0.9992 0.9992 0.9992 0.9992 0.9992 0.9992 0.9992 0.9992 0.9992 
0.9992 0.9992 0.9992 0.9992 0.9992 0.9992 0.9992 0.9992 0.9992 0.9992 0.9992 0.9992 0.9992 0.9992 0.9992 0.9992 0.9992 0.9992 0.9992 0.9992 0.9992 
0.9992 0.9992 0.9992 0.9992 0.9992 0.9992 0.9992 0.9992 0.9992 0.9992 0.9992 0.9992 0.9992 0.9992 0.9992 0.9992 0.9992 0.9992 0.9992 0.9992 0.9992 
0.9992 0.9992 0.9992 0.9992 0.9992 0.9992 0.9992 0.9992 0.9992 0.9992 0.9992 0.9992 0.9992 0.9992 0.9992 0.9992 0.9992 0.9992 0.9992 0.9992 0.9992 
0.9992 0.9992 0.9992 0.9992 0.9992 0.9992 0.9992 0.9992 0.9992 0.9992 0.9992 0.9992 0.9992 0.9992 0.9992 0.9992 0.9992 0.9992 0.9992 0.9992 0.9992 
0.9992 0.9992 0.9992 0.9992 0.9992 0.9992 0.9992 0.9992 0.9992 0.9992 0.9992 0.9992 0.9992 0.9992 0.9992 0.9992 0.9992 0.9992 0.9992 0.9992 0.9992 
0.9992 0.9992 0.9992 0.9992 0.9992 0.9992 0.9992 0.9992 0.9992 0.9992 0.9992 0.9992 0.9992 0.9992 0.9992 0.9992 0.9992 0.9992 0.9992 0.9992 0.9992 
0.9992 0.9992 0.9992 0.9992 0.9992 0.9992 0.9992 0.9992 0.9992 0.9992 0.9992 0.9992 0.9992 0.9992 0.9992 0.9992 0.9992 0.9992 0.9992 0.9992 0.9992 
0.9992 0.9992 0.9992 0.9992 0.9992 0.9992 0.9992 0.9992 0.9992 0.9992 0.9992 0.9992 0.9992 0.9992 0.9992 0.9992 0.9992 0.9992 0.9992 0.9992 0.9992 
0.9992 0.9992 0.9992 0.9992 0.9992 0.9992 0.9992 0.9992 0.9992 0.9992 0.9992 0.9992 0.9992 0.9992 0.9992 0.9992 0.9992 0.9992 0.9992 0.9992 0.9992 
0.9992 0.9992 0.9992 0.9992 0.9992 0.9992 0.9992 0.9992 0.9992 0.9992 0.9992 0.9992 0.9992 0.9992 0.9992 0.9992 0.9992 0.9992 0.9992 0.9992 0.9992 
0.9992 0.9992 0.9992 0.9992 0.9992 0.9992 0.9992 0.9992 0.9992 0.9992 0.9992 0.9992 0.9992 0.9992 0.9992 0.9992 0.9992 0.9992 0.9992 0.9992 0.9992 
0.9992 0.9992 0.9992 0.9992 0.9992 0.9992 0.9992 0.9992 0.9992 0.9992 0.9992 0.9992 0.9992 0.9992 0.9992 0.9992 0.9992 0.9992 0.9992 0.9992 0.9992 
0.9992 0.9992 0.9992 0.9992 0.9992 0.9992 0.9992 0.9992 0.9992 0.9992 0.9992 0.9992 0.9992 0.9992 0.9992 0.9992 0.9992 0.9992 0.9992 0.9992 0.9992 
0.9992 0.9992 0.9992 0.9992 0.9992 0.9992 0.9992 0.9992 0.9992 0.9992 0.9992 0.9992 0.9992 0.9992 0.9992 0.9992 0.9992 0.9992 0.9992 0.9992 0.9992 
0.9992 0.9992 0.9992 0.9992 0.9992 0.9992 0.9992 0.9992 0.9992 0.9992 0.9992 0.9992 0.9992 0.9992 0.9992 0.9992 0.9992 0.9992 0.9992 0.9992 0.9992 
0.9992 0.9992 0.9992 0.9992 0.9992 0.9992 0.9992 0.9992 0.9992 0.9992 0.9992 0.9992 0.9992 0.9992 0.9992 0.9992 0.9992 0.9992 0.9992 0.9992 0.9992 
0.9992 0.9992 0.9992 0.9992 0.9992 0.9992 0.9992 0.9992 0.9992 0.9992 0.9992 0.9992 0.9992 0.9992 0.9992 0.9992 0.9992 0.9992 0.9992 0.9992 0.9992 
0.9992 0.9992 0.9992 0.9992 0.9992 0.9992 0.9992 0.9992 0.9992 0.9992 0.9992 0.9992 0.9992 0.9992 0.9992 0.9992 0.9992 0.9992 0.9992 0.9992 0.9992 
0.9992 0.9992 0.9992 0.9992 0.9992 0.9992 0.9992 0.9992 0.9992 0.9992 0.9992 0.9992 0.9992 0.9992 0.9992 0.9992 0.9992 0.9992 0.9992 0.9992 0.9992 
0.9992 0.9992 0.9992 0.9992 0.9992 0.9992 0.9992 0.9992 0.9992 0.9992 0.9992 0.9992 0.9992 0.9992 0.9992 0.9992 0.9992 0.9992 0.9992 0.9992 0.9992 
0.9992 0.9992 0.9992 0.9992 0.9992 0.9992 0.9992 0.9992 0.9992 0.9992 0.9992 0.9992 0.9992 0.9992 0.9992 0.9992 0.9992 0.9992 0.9992 0.9992 0.9992 
0.9992 0.9992 0.9992 0.9992 0.9992 0.9992 0.9992 0.9992 0.9992 0.9992 0.9992 0.9992 0.9992 0.9992 0.9992 0.9992 0.9992 0.9992 0.9992 0.9992 0.9992 
0.9992 0.9992 0.9992 0.9992 0.9992 0.9992 0.9992 0.9992 0.9992 0.9992 0.9992 0.9992 0.9992 0.9992 0.9992 0.9992 0.9992 0.9992 0.9992 0.9992 0.9992 
0.9992 0.9992 0.9992 0.9992 0.9992 0.9992 0.9992 0.9992 0.9992 0.9992 0.9992 0.9992 0.9992 0.9992 0.9992 0.9992 0.9992 0.9992 0.9992 0.9992 0.9992 
0.9992 0.9992 0.9992 0.9992 0.9992 0.9992 0.9992 0.9992 0.9992 0.9992 0.9992 0.9992 0.9992 0.9992 0.9992 0.9992 0.9992 0.9992 0.9992 0.9992 0.9992 
0.9992 0.9992 0.9992 0.9992 0.9992 0.9992 0.9992 0.9992 0.9992 0.9992 0.9992 0.9992 0.9992 0.9992 0.9992 0.9992 0.9992 0.9992 0.9992 0.9992 0.9992 
0.9992 0.9992 0.9992 0.9992 0.9992 0.9992 0.9992 0.9992 0.9992 0.9992 0.9992 0.9992 0.9992 0.9992 0.9992 0.9992 0.9992 0.9992 0.9992 0.9992 0.9992 
0.9992 0.9992 0.9992 0.9992 0.9992 0.9992 0.9992 0.9992 0.9992 0.9992 0.9992 0.9992 0.9992 0.9992 0.9992 0.9992 0.9992 0.9992 0.9992 0.9992 0.9992 
0.9992 0.9992 0.9992 0.9992 0.9992 0.9992 0.9992 0.9992 0.9992 0.9992 0.9992 0.9992 0.9992 0.9992 0.9992 0.9992 0.9992 0.9992 0.9992 0.9992 0.9992 
0.9992 0.9992 0.9992 0.9992 0.9992 0.9992 0.9992 0.9992 0.9992 0.9992 0.9992 0.9992 0.9992 0.9992 0.9992 0.9992 0.9992 0.9992 0.9992 0.9992 0.9992 
0.9992 0.9992 0.9992 0.9992 0.9992 0.9992 0.9992 0.9992 0.9992 0.9992 0.9992 0.9992 0.9992 0.9992 0.9992 0.9992 0.9992 0.9992 0.9992 0.9992 0.9992 
0.9992 0.9992 0.9992 0.9992 0.9992 0.9992 0.9992 0.9992 0.9992 0.9992 0.9992 0.9992 0.9992 0.9992 0.9992 0.9992 0.9992 0.9992 0.9992 0.9992 0.9992 
0.9992 0.9992 0.9992 0.9992 0.9992 0.9992 0.9992 0.9992 0.9992 0.9992 0.9992 0.9992 0.9992 0.9992 0.9992 0.9992 0.9992 0.9992 0.9992 0.9992 0.9992 
0.9992 0.9992 0.9992 0.9992 0.9992 0.9992 0.9992 0.9992 0.9992 0.9992 0.9992 0.9992 0.9992 0.9992 0.9992 0.9992 0.9992 0.9992 0.9992 0.9992 0.9992 
0.9992 0.9992 0.9992 0.9992 0.9992 0.9992 0.9992 0.9992 0.9992 0.9992 0.9992 0.9992 0.9992 0.9992 0.9992 0.9992 0.9992 0.9992 0.9992 0.9992 0.9992 
0.9992 0.9992 0.9992 0.9992 0.9992 0.9992 0.9992 0.9992 0.9992 0.9992 0.9992 0.9992 0.9992 0.9992 0.9992 0.9992 0.9992 0.9992 0.9992 0.9992 0.9992 
0.9992 0.9992 0.9992 0.9992 0.9992 0.9992 0.9992 0.9992 0.9992 0.9992 0.9992 0.9992 0.9992 0.9992 0.9992 0.9992 0.9992 0.9992 0.9992 0.9992 0.9992 
</DataArray>
</PointData>
</Piece>
</ImageData>
</VTKFile>
