<VTKFile type="ImageData">
<ImageData Origin="0 -10 0" Spacing="0.5 0.5 1" WholeExtent="0 20 0 40 0 0">
<Piece Extent="0 20 0 40 0 0">
<PointData>
<DataArray Name="f" NumberOfComponents="1" format="ascii" type="Float64">
8.127e-06 8.127e-06 8.127e-06 8.127e-06 8.127e-06 8.127e-06 8.127e-06 8.127e-06 8.127e-06 8.127e-06 8.127e-06 8.127e-06 8.127e-06 8.127e-06 8.127e-06 8.127e-06 8.127e-06 8.127e-06 8.127e-06 8.127e-06 8.127e-06 
2.342e-05 2.342e-05 2.342e-05 2.342e-05 2.342e-05 2.342e-05 2.342e-05 2.342e-05 2.342e-05 2.342e-05 2.342e-05 2.342e-05 2.342e-05 2.342e-05 2.342e-05 2.342e-05 2.342e-05 2.342e-05 2.342e-05 2.342e-05 2.342e-05 
6.369e-05 6.369e-05 6.369e-05 6.369e-05 6.369e-05 6.369e-05 6.369e-05 6.369e-05 6.369e-05 6.369e-05 6.369e-05 6.369e-05 6.369e-05 6.369e-05 6.369e-05 6.369e-05 6.369e-05 6.369e-05 6.369e-05 6.369e-05 6.369e-05 
0.0001633 0.0001633 0.0001633 0.0001633 0.0001633 0.0001633 0.0001633 0.0001633 0.0001633 0.0001633 0.0001633 0.0001633 0.0001633 0.0001633 0.0001633 0.0001633 0.0001633 0.0001633 0.0001633 0.0001633 0.0001633 
0.0003949 0.0003949 0.0003949 0.0003949 0.0003949 0.0003949 0.0003949 0.0003949 0.0003949 0.0003949 0.0003949 0.0003949 0.0003949 0.0003949 0.0003949 0.0003949 0.0003949 0.0003949 0.0003949 0.0003949 0.0003949 
0.0009007 0.0009007 0.0009007 0.0009007 0.0009007 0.0009007 0.0009007 0.0009007 0.0009007 0.0009007 0.0009007 0.0009007 0.0009007 0.0009007 0.0009007 0.0009007 0.0009007 0.0009007 0.0009007 0.0009007 0.0009007 
0.001938 0.001938 0.001938 0.001938 0.001938 0.001938 0.001938 0.001938 0.001938 0.001938 0.001938 0.001938 0.001938 0.001938 0.001938 0.001938 0.001938 0.001938 0.001938 0.001938 0.001938 
0.003932 0.003932 0.003932 0.003932 0.003932 0.003932 0.003932 0.003932 0.003932 0.003932 0.003932 0.003932 0.003932 0.003932 0.003932 0.003932 0.003932 0.003932 0.003932 0.003932 0.003932 
0.007527 0.007527 0.007527 0.007527 0.007527 0.007527 0.007527 0.007527 0.007527 0.007527 0.007527 0.007527 0.007527 0.007527 0.007527 0.007527 0.007527 0.007527 0.007527 0.007527 0.007527 
0.01359 0.01359 0.01359 0.01359 0.01359 0.01359 0.01359 0.01359 0.01359 0.01359 0.01359 0.01359 0.01359 0.01359 0.01359 0.01359 0.01359 0.01359 0.01359 0.01359 0.01359 
0.02315 0.02315 0.02315 0.02315 0.02315 0.02315 0.02315 0.02315 0.02315 0.02315 0.02315 0.02315 0.02315 0.02315 0.02315 0.02315 0.02315 0.02315 0.02315 0.02315 0.02315 
0.03718 0.03718 0.03718 0.03718 0.03718 0.03718 0.03718 0.03718 0.03718 0.03718 0.03718 0.03718 0.03718 0.03718 0.03718 0.03718 0.03718 0.03718 0.03718 0.03718 0.03718 
0.05631 0.05631 0.05631 0.05631 0.05631 0.05631 0.05631 0.05631 0.05631 0.05631 0.05631 0.05631 0.05631 0.05631 0.05631 0.05631 0.05631 0.05631 0.05631 0.05631 0.05631 
0.08042 0.08042 0.08042 0.08042 0.08042 0.08042 0.08042 0.08042 0.08042 0.08042 0.08042 0.08042 0.08042 0.08042 0.08042 0.08042 0.08042 0.08042 0.08042 0.08042 0.08042 
0.1082 0.1082 0.1082 0.1082 0.1082 0.1082 0.1082 0.1082 0.1082 0.1082 0.1082 0.1082 0.1082 0.1082 0.1082 0.1082 0.1082 0.1082 0.1082 0.1082 0.1082 
0.1373 0.1373 0.1373 0.1373 0.1373 0.1373 0.1373 0.1373 0.1373 0.1373 0.1373 0.1373 0.1373 0.1373 0.1373 0.1373 0.1373 0.1373 0.1373 0.1373 0.1373 
0.1641 0.1641 0.1641 0.1641 0.1641 0.1641 0.1641 0.1641 0.1641 0.1641 0.1641 0.1641 0.1641 0.1641 0.1641 0.1641 0.1641 0.1641 0.1641 0.1641 0.1641 
0.1847 0.1847 0.1847 0.1847 0.1847 0.1847 0.1847 0.1847 0.1847 0.1847 0.1847 0.1847 0.1847 0.1847 0.1847 0.1847 0.1847 0.1847 0.1847 0.1847 0.1847 
0.1958 0.1958 0.1958 0.1958 0.1958 0.1958 0.1958 0.1958 0.1958 0.1958 0.1958 0.1958 0.1958 0.1958 0.1958 0.1958 0.1958 0.1958 0.1958 0.1958 0.1958 
0.1952 0.1952 0.1952 0.1952 0.1952 0.1952 0.1952 0.1952 0.1952 0.1952 0.1952 0.1952 0.1952 0.1952 0.1952 0.1952 0.1952 0.1952 0.1952 0.1952 0.1952 
0.1832 0.1832 0.1832 0.1832 0.1832 0.1832 0.1832 0.1832 0.1832 0.1832 0.1832 0.1832 0.1832 0.1832 0.1832 0.1832 0.1832 0.1832 0.1832 0.1832 0.1832 
0.1616 0.1616 0.1616 0.1616 0.1616 0.1616 0.1616 0.1616 0.1616 0.1616 0.1616 0.1616 0.1616 0.1616 0.1616 0.1616 0.1616 0.1616 0.1616 0.1616 0.1616 
0.134 0.134 0.134 0.134 0.134 0.134 0.134 0.134 0.134 0.134 0.134 0.134 0.134 0.134 0.134 0.134 0.134 0.134 0.134 0.134 0.134 
0.1044 0.1044 0.1044 0.1044 0.1044 0.1044 0.1044 0.1044 0.1044 0.1044 0.1044 0.1044 0.1044 0.1044 0.1044 0.1044 0.1044 0.1044 0.1044 0.1044 0.1044 
0.07637 0.07637 0.07637 0.07637 0.07637 0.07637 0.07637 0.07637 0.07637 0.07637 0.07637 0.07637 0.07637 0.07637 0.07637 0.07637 0.07637 0.07637 0.07637 0.07637 0.07637 
0.05241 0.05241 0.05241 0.05241 0.05241 0.05241 0.05241 0.05241 0.05241 0.05241 0.05241 0.05241 0.05241 0.05241 0.05241 0.05241 0.05241 0.05241 0.05241 0.05241 0.05241 
0.03373 0.03373 0.03373 0.03373 0.03373 0.03372 0.03372 0.03372 0.03372 0.03372 0.03372 0.03372 0.03372 0.03372 0.03372 0.03373 0.03373 0.03373 0.03373 0.03373 0.03373 
0.02034 0.02034 0.02034 0.02034 0.02034 0.02034 0.02034 0.02034 0.02034 0.02034 0.02034 0.02034 0.02034 0.02034 0.02034 0.02034 0.02034 0.02034 0.02034 0.02034 0.02034 
0.01148 0.01148 0.01148 0.01148 0.01148 0.01148 0.01148 0.01148 0.01148 0.01148 0.01148 0.01148 0.01148 0.01148 0.01148 0.01148 0.01148 0.01148 0.01148 0.01148 0.01148 
0.006065 0.006065 0.006065 0.006065 0.006065 0.006065 0.006065 0.006065 0.006065 0.006065 0.006065 0.006065 0.006065 0.006065 0.006065 0.006065 0.006065 0.006065 0.006065 0.006065 0.006065 
0.002995 0.002995 0.002995 0.002995 0.002995 0.002995 0.002995 0.002995 0.002995 0.002995 0.002995 0.002995 0.002995 0.002995 0.002995 0.002995 0.002995 0.002995 0.002995 0.002995 0.002995 
0.001381 0.001381 0.001381 0.001381 0.001381 0.001381 0.001381 0.001381 0.001381 0.001381 0.001381 0.001381 0.001381 0.001381 0.001381 0.001381 0.001381 0.001381 0.001381 0.001381 0.001381 
0.0005943 0.0005943 0.0005943 0.0005943 0.0005943 0.0005943 0.0005943 0.0005943 0.0005944 0.0005944 0.0005944 0.0005944 0.0005944 0.0005944 0.0005944 0.0005944 0.0005943 0.0005943 0.0005943 0.0005943 0.0005943 
0.0002384 0.0002384 0.0002384 0.0002384 0.0002384 0.0002384 0.0002384 0.0002384 0.0002384 0.0002384 0.0002384 0.0002384 0.0002384 0.0002384 0.0002384 0.0002384 0.0002384 0.0002384 0.0002384 0.0002384 0.0002384 
8.9e-05 8.9e-05 8.9e-05 8.9e-05 8.9e-05 8.9e-05 8.9e-05 8.9e-05 8.9e-05 8.9e-05 8.9e-05 8.9e-05 8.901e-05 8.901e-05 8.901e-05 8.901e-05 8.901e-05 8.901e-05 8.901e-05 8.901e-05 8.9e-05 
3.091e-05 3.091e-05 3.091e-05 3.09e-05 3.09e-05 3.09e-05 3.09e-05 3.09e-05 3.09e-05 3.09e-05 3.09e-05 3.09e-05 3.091e-05 3.091e-05 3.091e-05 3.091e-05 3.091e-05 3.091e-05 3.091e-05 3.091e-05 3.091e-05 
9.981e-06 9.98e-06 9.98e-06 9.98e-06 9.98e-06 9.98e-06 9.979e-06 9.979e-06 9.979e-06 9.979e-06 9.979e-06 9.979e-06 9.979e-06 9.979e-06 9.98e-06 9.98e-06 9.98e-06 9.98e-06 9.98e-06 9.98e-06 9.981e-06 
3.044e-06 3.044e-06 3.044e-06 3.044e-06 3.044e-06 3.043e-06 3.043e-06 3.043e-06 3.043e-06 3.043e-06 3.043e-06 3.043e-06 3.043e-06 3.043e-06 3.043e-06 3.043e-06 3.043e-06 3.043e-06 3.043e-06 3.043e-06 3.044e-06 
1.061e-06 1.061e-06 1.061e-06 1.061e-06 1.061e-06 1.061e-06 1.061e-06 1.061e-06 1.061e-06 1.061e-06 1.061e-06 1.061e-06 1.061e-06 1.061e-06 1.061e-06 1.061e-06 1.061e-06 1.061e-06 1.061e-06 1.061e-06 1.061e-06 
1.027e-06 1.027e-06 1.027e-06 1.027e-06 1.027e-06 1.027e-06 1.027e-06 1.027e-06 1.027e-06 1.027e-06 1.027e-06 1.027e-06 1.027e-06 1.027e-06 1.027e-06 1.027e-06 1.027e-06 1.027e-06 1.027e-06 1.027e-06 1.027e-06 
2.701e-06 2.701e-06 2.701e-06 2.701e-06 2.701e-06 2.701e-06 2.701e-06 2.701e-06 2.701e-06 2.701e-06 2.701e-06 2.701e-06 2.701e-06 2.701e-06 2.701e-06 2.701e-06 2.701e-06 2.701e-06 2.701e-06 2.701e-06 2.701e-06 
</DataArray>
<DataArray Name="E" NumberOfComponents="1" format="ascii" type="Float64">
-1.453 -1.453 -1.453 -1.453 -1.453 -1.453 -1.453 -1.453 -1.453 -1.453 -1.453 -1.453 -1.453 -1.453 -1.453 -1.453 -1.453 -1.453 -1.453 -1.453 -1.453 
-1.453 -1.453 -1.453 -1.453 -1.453 -1.453 -1.453 -1.453 -1.453 -1.453 -1.453 -1.453 -1.453 -1.453 -1.453 -1.453 -1.453 -1.453 -1.453 -1.453 -1.453 
-1.453 -1.453 -1.453 -1.453 -1.453 -1.453 -1.453 -1.453 -1.453 -1.453 -1.453 -1.453 -1.453 -1.453 -1.453 -1.453 -1.453 -1.453 -1.453 -1.453 -1.453 
-1.453 -1.453 -1.453 -1.453 -1.453 -1.453 -1.453 -1.453 -1.453 -1.453 -1.453 -1.453 -1.453 -1.453 -1.453 -1.453 -1.453 -1.453 -1.453 -1.453 -1.453 
-1.453 -1.453 -1.453 -1.453 -1.453 -1.453 -1.453 -1.453 -1.453 -1.453 -1.453 -1.453 -1.453 -1.453 -1.453 -1.453 -1.453 -1.453 -1.453 -1.453 -1.453 
-1.453 -1.453 -1.453 -1.453 -1.453 -1.453 -1.453 -1.453 -1.453 -1.453 -1.453 -1.453 -1.453 -1.453 -1.453 -1.453 -1.453 -1.453 -1.453 -1.453 -1.453 
-1.453 -1.453 -1.453 -1.453 -1.453 -1.453 -1.453 -1.453 -1.453 -1.453 -1.453 -1.453 -1.453 -1.453 -1.453 -1.453 -1.453 -1.453 -1.453 -1.453 -1.453 
-1.453 -1.453 -1.453 -1.453 -1.453 -1.453 -1.453 -1.453 -1.453 -1.453 -1.453 -1.453 -1.453 -1.453 -1.453 -1.453 -1.453 -1.453 -1.453 -1.453 -1.453 
-1.453 -1.453 -1.453 -1.453 -1.453 -1.453 -1.453 -1.453 -1.453 -1.453 -1.453 -1.453 -1.453 -1.453 -1.453 -1.453 -1.453 -1.453 -1.453 -1.453 -1.453 
-1.453 -1.453 -1.453 -1.453 -1.453 -1.453 -1.453 -1.453 -1.453 -1.453 -1.453 -1.453 -1.453 -1.453 -1.453 -1.453 -1.453 -1.453 -1.453 -1.453 -1.453 
-1.453 -1.453 -1.453 -1.453 -1.453 -1.453 -1.453 -1.453 -1.453 -1.453 -1.453 -1.453 -1.453 -1.453 -1.453 -1.453 -1.453 -1.453 -1.453 -1.453 -1.453 
-1.453 -1.453 -1.453 -1.453 -1.453 -1.453 -1.453 -1.453 -1.453 -1.453 -1.453 -1.453 -1.453 -1.453 -1.453 -1.453 -1.453 -1.453 -1.453 -1.453 -1.453 
-1.453 -1.453 -1.453 -1.453 -1.453 -1.453 -1.453 -1.453 -1.453 -1.453 -1.453 -1.453 -1.453 -1.453 -1.453 -1.453 -1.453 -1.453 -1.453 -1.453 -1.453 
-1.453 -1.453 -1.453 -1.453 -1.453 -1.453 -1.453 -1.453 -1.453 -1.453 -1.453 -1.453 -1.453 -1.453 -1.453 -1.453 -1.453 -1.453 -1.453 -1.453 -1.453 
-1.453 -1.453 -1.453 -1.453 -1.453 -1.453 -1.453 -1.453 -1.453 -1.453 -1.453 -1.453 -1.453 -1.453 -1.453 -1.453 -1.453 -1.453 -1.453 -1.453 -1.453 
-1.453 -1.453 -1.453 -1.453 -1.453 -1.453 -1.453 -1.453 -1.453 -1.453 -1.453 -1.453 -1.453 -1.453 -1.453 -1.453 -1.453 -1.453 -1.453 -1.453 -1.453 
-1.453 -1.453 -1.453 -1.453 -1.453 -1.453 -1.453 -1.453 -1.453 -1.453 -1.453 -1.453 -1.453 -1.453 -1.453 -1.453 -1.453 -1.453 -1.453 -1.453 -1.453 
-1.453 -1.453 -1.453 -1.453 -1.453 -1.453 -1.453 -1.453 -1.453 -1.453 -1.453 -1.453 -1.453 -1.453 -1.453 -1.453 -1.453 -1.453 -1.453 -1.453 -1.453 
-1.453 -1.453 -1.453 -1.453 -1.453 -1.453 -1.453 -1.453 -1.453 -1.453 -1.453 -1.453 -1.453 -1.453 -1.453 -1.453 -1.453 -1.453 -1.453 -1.453 -1.453 
-1.453 -1.453 -1.453 -1.453 -1.453 -1.453 -1.453 -1.453 -1.453 -1.453 -1.453 -1.453 -1.453 -1.453 -1.453 -1.453 -1.453 -1.453 -1.453 -1.453 -1.453 
-1.453 -1.453 -1.453 -1.453 -1.453 -1.453 -1.453 -1.453 -1.453 -1.453 -1.453 -1.453 -1.453 -1.453 -1.453 -1.453 -1.453 -1.453 -1.453 -1.453 -1.453 
-1.453 -1.453 -1.453 -1.453 -1.453 -1.453 -1.453 -1.453 -1.453 -1.453 -1.453 -1.453 -1.453 -1.453 -1.453 -1.453 -1.453 -1.453 -1.453 -1.453 -1.453 
-1.453 -1.453 -1.453 -1.453 -1.453 -1.453 -1.453 -1.453 -1.453 -1.453 -1.453 -1.453 -1.453 -1.453 -1.453 -1.453 -1.453 -1.453 -1.453 -1.453 -1.453 
-1.453 -1.453 -1.453 -1.453 -1.453 -1.453 -1.453 -1.453 -1.453 -1.453 -1.453 -1.453 -1.453 -1.453 -1.453 -1.453 -1.453 -1.453 -1.453 -1.453 -1.453 
-1.453 -1.453 -1.453 -1.453 -1.453 -1.453 -1.453 -1.453 -1.453 -1.453 -1.453 -1.453 -1.453 -1.453 -1.453 -1.453 -1.453 -1.453 -1.453 -1.453 -1.453 
-1.453 -1.453 -1.453 -1.453 -1.453 -1.453 -1.453 -1.453 -1.453 -1.453 -1.453 -1.453 -1.453 -1.453 -1.453 -1.453 -1.453 -1.453 -1.453 -1.453 -1.453 
-1.453 -1.453 -1.453 -1.453 -1.453 -1.453 -1.453 -1.453 -1.453 -1.453 -1.453 -1.453 -1.453 -1.453 -1.453 -1.453 -1.453 -1.453 -1.453 -1.453 -1.453 
-1.453 -1.453 -1.453 -1.453 -1.453 -1.453 -1.453 -1.453 -1.453 -1.453 -1.453 -1.453 -1.453 -1.453 -1.453 -1.453 -1.453 -1.453 -1.453 -1.453 -1.453 
-1.453 -1.453 -1.453 -1.453 -1.453 -1.453 -1.453 -1.453 -1.453 -1.453 -1.453 -1.453 -1.453 -1.453 -1.453 -1.453 -1.453 -1.453 -1.453 -1.453 -1.453 
-1.453 -1.453 -1.453 -1.453 -1.453 -1.453 -1.453 -1.453 -1.453 -1.453 -1.453 -1.453 -1.453 -1.453 -1.453 -1.453 -1.453 -1.453 -1.453 -1.453 -1.453 
-1.453 -1.453 -1.453 -1.453 -1.453 -1.453 -1.453 -1.453 -1.453 -1.453 -1.453 -1.453 -1.453 -1.453 -1.453 -1.453 -1.453 -1.453 -1.453 -1.453 -1.453 
-1.453 -1.453 -1.453 -1.453 -1.453 -1.453 -1.453 -1.453 -1.453 -1.453 -1.453 -1.453 -1.453 -1.453 -1.453 -1.453 -1.453 -1.453 -1.453 -1.453 -1.453 
-1.453 -1.453 -1.453 -1.453 -1.453 -1.453 -1.453 -1.453 -1.453 -1.453 -1.453 -1.453 -1.453 -1.453 -1.453 -1.453 -1.453 -1.453 -1.453 -1.453 -1.453 
-1.453 -1.453 -1.453 -1.453 -1.453 -1.453 -1.453 -1.453 -1.453 -1.453 -1.453 -1.453 -1.453 -1.453 -1.453 -1.453 -1.453 -1.453 -1.453 -1.453 -1.453 
-1.453 -1.453 -1.453 -1.453 -1.453 -1.453 -1.453 -1.453 -1.453 -1.453 -1.453 -1.453 -1.453 -1.453 -1.453 -1.453 -1.453 -1.453 -1.453 -1.453 -1.453 
-1.453 -1.453 -1.453 -1.453 -1.453 -1.453 -1.453 -1.453 -1.453 -1.453 -1.453 -1.453 -1.453 -1.453 -1.453 -1.453 -1.453 -1.453 -1.453 -1.453 -1.453 
-1.453 -1.453 -1.453 -1.453 -1.453 -1.453 -1.453 -1.453 -1.453 -1.453 -1.453 -1.453 -1.453 -1.453 -1.453 -1.453 -1.453 -1.453 -1.453 -1.453 -1.453 
-1.453 -1.453 -1.453 -1.453 -1.453 -1.453 -1.453 -1.453 -1.453 -1.453 -1.453 -1.453 -1.453 -1.453 -1.453 -1.453 -1.453 -1.453 -1.453 -1.453 -1.453 
-1.453 -1.453 -1.453 -1.453 -1.453 -1.453 -1.453 -1.453 -1.453 -1.453 -1.453 -1.453 -1.453 -1.453 -1.453 -1.453 -1.453 -1.453 -1.453 -1.453 -1.453 
-1.453 -1.453 -1.453 -1.453 -1.453 -1.453 -1.453 -1.453 -1.453 -1.453 -1.453 -1.453 -1.453 -1.453 -1.453 -1.453 -1.453 -1.453 -1.453 -1.453 -1.453 
-1.453 -1.453 -1.453 -1.453 -1.453 -1.453 -1.453 -1.453 -1.453 -1.453 -1.453 -1.453 -1.453 -1.453 -1.453 -1.453 -1.453 -1.453 -1.453 -1.453 -1.453 
</DataArray>
<DataArray Name="ne" NumberOfComponents="1" format="ascii" type="Float64">
1 1 1 1 1 1 1 1 1 1 1 1 1 1 1 1 1 1 1 1 1 
1 1 1 1 1 1 1 1 1 1 1 1 1 1 1 1 1 1 1 1 1 
1 1 1 1 1 1 1 1 1 1 1 1 1 1 1 1 1 1 1 1 1 
1 1 1 1 1 1 1 1 1 1 1 1 1 1 1 1 1 1 1 1 1 
1 1 1 1 1 1 1 1 1 1 1 1 1 1 1 1 1 1 1 1 1 
1 1 1 1 1 1 1 1 1 1 1 1 1 1 1 1 1 1 1 1 1 
1 1 1 1 1 1 1 1 1 1 1 1 1 1 1 1 1 1 1 1 1 
1 1 1 1 1 1 1 1 1 1 1 1 1 1 1 1 1 1 1 1 1 
1 1 1 1 1 1 1 1 1 1 1 1 1 1 1 1 1 1 1 1 1 
1 1 1 1 1 1 1 1 1 1 1 1 1 1 1 1 1 1 1 1 1 
1 1 1 1 1 1 1 1 1 1 1 1 1 1 1 1 1 1 1 1 1 
1 1 1 1 1 1 1 1 1 1 1 1 1 1 1 1 1 1 1 1 1 
1 1 1 1 1 1 1 1 1 1 1 1 1 1 1 1 1 1 1 1 1 
1 1 1 1 1 1 1 1 1 1 1 1 1 1 1 1 1 1 1 1 1 
1 1 1 1 1 1 1 1 1 1 1 1 1 1 1 1 1 1 1 1 1 
1 1 1 1 1 1 1 1 1 1 1 1 1 1 1 1 1 1 1 1 1 
1 1 1 1 1 1 1 1 1 1 1 1 1 1 1 1 1 1 1 1 1 
1 1 1 1 1 1 1 1 1 1 1 1 1 1 1 1 1 1 1 1 1 
1 1 1 1 1 1 1 1 1 1 1 1 1 1 1 1 1 1 1 1 1 
1 1 1 1 1 1 1 1 1 1 1 1 1 1 1 1 1 1 1 1 1 
1 1 1 1 1 1 1 1 1 1 1 1 1 1 1 1 1 1 1 1 1 
1 1 1 1 1 1 1 1 1 1 1 1 1 1 1 1 1 1 1 1 1 
1 1 1 1 1 1 1 1 1 1 1 1 1 1 1 1 1 1 1 1 1 
1 1 1 1 1 1 1 1 1 1 1 1 1 1 1 1 1 1 1 1 1 
1 1 1 1 1 1 1 1 1 1 1 1 1 1 1 1 1 1 1 1 1 
1 1 1 1 1 1 1 1 1 1 1 1 1 1 1 1 1 1 1 1 1 
1 1 1 1 1 1 1 1 1 1 1 1 1 1 1 1 1 1 1 1 1 
1 1 1 1 1 1 1 1 1 1 1 1 1 1 1 1 1 1 1 1 1 
1 1 1 1 1 1 1 1 1 1 1 1 1 1 1 1 1 1 1 1 1 
1 1 1 1 1 1 1 1 1 1 1 1 1 1 1 1 1 1 1 1 1 
1 1 1 1 1 1 1 1 1 1 1 1 1 1 1 1 1 1 1 1 1 
1 1 1 1 1 1 1 1 1 1 1 1 1 1 1 1 1 1 1 1 1 
1 1 1 1 1 1 1 1 1 1 1 1 1 1 1 1 1 1 1 1 1 
1 1 1 1 1 1 1 1 1 1 1 1 1 1 1 1 1 1 1 1 1 
1 1 1 1 1 1 1 1 1 1 1 1 1 1 1 1 1 1 1 1 1 
1 1 1 1 1 1 1 1 1 1 1 1 1 1 1 1 1 1 1 1 1 
1 1 1 1 1 1 1 1 1 1 1 1 1 1 1 1 1 1 1 1 1 
1 1 1 1 1 1 1 1 1 1 1 1 1 1 1 1 1 1 1 1 1 
1 1 1 1 1 1 1 1 1 1 1 1 1 1 1 1 1 1 1 1 1 
1 1 1 1 1 1 1 1 1 1 1 1 1 1 1 1 1 1 1 1 1 
1 1 1 1 1 1 1 1 1 1 1 1 1 1 1 1 1 1 1 1 1 
</DataArray>
</PointData>
</Piece>
</ImageData>
</VTKFile>
