<VTKFile type="ImageData">
<ImageData Origin="0 -10 0" Spacing="0.5 0.5 1" WholeExtent="0 20 0 40 0 0">
<Piece Extent="0 20 0 40 0 0">
<PointData>
<DataArray Name="f" NumberOfComponents="1" format="ascii" type="Float64">
0.001545 0.001545 0.001545 0.001545 0.001545 0.001545 0.001545 0.001545 0.001545 0.001544 0.001544 0.001544 0.001544 0.001544 0.001544 0.001545 0.001545 0.001545 0.001545 0.001545 0.001545 
0.003613 0.003613 0.003613 0.003613 0.003613 0.003613 0.003613 0.003613 0.003613 0.003613 0.003613 0.003613 0.003613 0.003613 0.003613 0.003613 0.003613 0.003613 0.003613 0.003613 0.003613 
0.007841 0.007841 0.007841 0.007841 0.007841 0.007841 0.007841 0.007841 0.007841 0.007841 0.007841 0.007841 0.007841 0.007841 0.007841 0.007841 0.007841 0.007841 0.007841 0.007841 0.007841 
0.01578 0.01578 0.01578 0.01578 0.01578 0.01578 0.01578 0.01578 0.01578 0.01578 0.01578 0.01578 0.01578 0.01578 0.01578 0.01578 0.01578 0.01578 0.01578 0.01578 0.01578 
0.02941 0.02941 0.02941 0.02941 0.02941 0.02941 0.02941 0.02941 0.02941 0.02941 0.02941 0.02941 0.02941 0.02941 0.02941 0.02941 0.02941 0.02941 0.02941 0.02941 0.02941 
0.05073 0.05073 0.05073 0.05073 0.05073 0.05073 0.05073 0.05073 0.05073 0.05073 0.05073 0.05073 0.05073 0.05073 0.05073 0.05073 0.05073 0.05073 0.05073 0.05073 0.05073 
0.08087 0.08087 0.08087 0.08087 0.08087 0.08087 0.08087 0.08087 0.08087 0.08087 0.08087 0.08087 0.08087 0.08087 0.08087 0.08087 0.08087 0.08087 0.08087 0.08087 0.08087 
0.119 0.119 0.119 0.119 0.119 0.119 0.119 0.119 0.119 0.119 0.119 0.119 0.119 0.119 0.119 0.119 0.119 0.119 0.119 0.119 0.119 
0.1613 0.1613 0.1613 0.1613 0.1613 0.1613 0.1613 0.1613 0.1613 0.1613 0.1613 0.1613 0.1613 0.1613 0.1613 0.1613 0.1613 0.1613 0.1613 0.1613 0.1613 
0.2011 0.2011 0.2011 0.2011 0.2011 0.2011 0.2011 0.2011 0.2011 0.2011 0.2011 0.2011 0.2011 0.2011 0.2011 0.2011 0.2011 0.2011 0.2011 0.2011 0.2011 
0.2301 0.2301 0.2301 0.2301 0.2301 0.2301 0.2301 0.2301 0.2301 0.2301 0.2301 0.2301 0.2301 0.2301 0.2301 0.2301 0.2301 0.2301 0.2301 0.2301 0.2301 
0.241 0.241 0.241 0.241 0.241 0.241 0.241 0.241 0.241 0.241 0.241 0.241 0.241 0.241 0.241 0.241 0.241 0.241 0.241 0.241 0.241 
0.2306 0.2306 0.2306 0.2306 0.2306 0.2306 0.2306 0.2306 0.2306 0.2306 0.2306 0.2306 0.2306 0.2306 0.2306 0.2306 0.2306 0.2306 0.2306 0.2306 0.2306 
0.2009 0.2009 0.2009 0.2009 0.2009 0.2009 0.2009 0.2009 0.2009 0.2009 0.2009 0.2009 0.2009 0.2009 0.2009 0.2009 0.2009 0.2009 0.2009 0.2009 0.2009 
0.1588 0.1588 0.1588 0.1588 0.1588 0.1588 0.1588 0.1588 0.1588 0.1588 0.1588 0.1588 0.1588 0.1588 0.1588 0.1588 0.1588 0.1588 0.1588 0.1588 0.1588 
0.1135 0.1135 0.1135 0.1135 0.1135 0.1135 0.1135 0.1135 0.1135 0.1135 0.1135 0.1135 0.1135 0.1135 0.1135 0.1135 0.1135 0.1135 0.1135 0.1135 0.1135 
0.07312 0.07312 0.07312 0.07312 0.07312 0.07312 0.07312 0.07312 0.07312 0.07312 0.07312 0.07312 0.07312 0.07312 0.07312 0.07312 0.07312 0.07312 0.07312 0.07312 0.07312 
0.04223 0.04223 0.04223 0.04223 0.04223 0.04223 0.04223 0.04223 0.04223 0.04223 0.04223 0.04223 0.04223 0.04223 0.04223 0.04223 0.04223 0.04223 0.04223 0.04223 0.04223 
0.02176 0.02176 0.02176 0.02176 0.02176 0.02176 0.02176 0.02176 0.02176 0.02176 0.02176 0.02176 0.02176 0.02176 0.02176 0.02176 0.02176 0.02176 0.02176 0.02176 0.02176 
0.009954 0.009954 0.009954 0.009954 0.009954 0.009954 0.009954 0.009954 0.009954 0.009954 0.009954 0.009954 0.009954 0.009954 0.009954 0.009954 0.009954 0.009954 0.009954 0.009954 0.009954 
0.004018 0.004017 0.004017 0.004017 0.004017 0.004018 0.004018 0.004018 0.004018 0.004018 0.004018 0.004018 0.004018 0.004018 0.004018 0.004018 0.004018 0.004018 0.004018 0.004018 0.004018 
0.001422 0.001422 0.001422 0.001422 0.001422 0.001422 0.001422 0.001422 0.001422 0.001422 0.001422 0.001422 0.001422 0.001422 0.001422 0.001422 0.001422 0.001422 0.001422 0.001422 0.001422 
0.000438 0.0004379 0.0004379 0.0004379 0.0004379 0.0004379 0.000438 0.000438 0.000438 0.000438 0.000438 0.000438 0.000438 0.000438 0.000438 0.000438 0.000438 0.000438 0.000438 0.000438 0.000438 
0.0001166 0.0001166 0.0001166 0.0001166 0.0001166 0.0001166 0.0001166 0.0001166 0.0001166 0.0001166 0.0001166 0.0001166 0.0001166 0.0001166 0.0001166 0.0001166 0.0001166 0.0001166 0.0001166 0.0001166 0.0001166 
2.661e-05 2.661e-05 2.661e-05 2.661e-05 2.661e-05 2.661e-05 2.661e-05 2.661e-05 2.661e-05 2.661e-05 2.661e-05 2.661e-05 2.661e-05 2.661e-05 2.661e-05 2.661e-05 2.661e-05 2.661e-05 2.661e-05 2.661e-05 2.661e-05 
5.165e-06 5.164e-06 5.164e-06 5.164e-06 5.164e-06 5.164e-06 5.164e-06 5.164e-06 5.164e-06 5.164e-06 5.164e-06 5.164e-06 5.164e-06 5.164e-06 5.165e-06 5.165e-06 5.165e-06 5.165e-06 5.165e-06 5.165e-06 5.165e-06 
8.449e-07 8.449e-07 8.449e-07 8.449e-07 8.449e-07 8.449e-07 8.449e-07 8.449e-07 8.449e-07 8.449e-07 8.449e-07 8.449e-07 8.449e-07 8.449e-07 8.449e-07 8.449e-07 8.449e-07 8.449e-07 8.449e-07 8.449e-07 8.449e-07 
1.155e-07 1.155e-07 1.155e-07 1.155e-07 1.155e-07 1.155e-07 1.155e-07 1.155e-07 1.155e-07 1.155e-07 1.155e-07 1.155e-07 1.155e-07 1.155e-07 1.155e-07 1.155e-07 1.155e-07 1.155e-07 1.155e-07 1.155e-07 1.155e-07 
1.311e-08 1.311e-08 1.311e-08 1.311e-08 1.311e-08 1.311e-08 1.311e-08 1.311e-08 1.311e-08 1.311e-08 1.311e-08 1.311e-08 1.311e-08 1.311e-08 1.311e-08 1.311e-08 1.311e-08 1.311e-08 1.311e-08 1.311e-08 1.311e-08 
1.398e-09 1.398e-09 1.398e-09 1.398e-09 1.398e-09 1.398e-09 1.398e-09 1.398e-09 1.398e-09 1.398e-09 1.398e-09 1.398e-09 1.398e-09 1.398e-09 1.398e-09 1.398e-09 1.398e-09 1.398e-09 1.398e-09 1.398e-09 1.398e-09 
1.119e-09 1.119e-09 1.119e-09 1.119e-09 1.119e-09 1.119e-09 1.119e-09 1.119e-09 1.119e-09 1.119e-09 1.119e-09 1.119e-09 1.119e-09 1.119e-09 1.119e-09 1.119e-09 1.119e-09 1.119e-09 1.119e-09 1.119e-09 1.119e-09 
5.437e-09 5.437e-09 5.437e-09 5.437e-09 5.437e-09 5.437e-09 5.437e-09 5.437e-09 5.437e-09 5.437e-09 5.437e-09 5.437e-09 5.437e-09 5.437e-09 5.437e-09 5.437e-09 5.437e-09 5.437e-09 5.437e-09 5.437e-09 5.437e-09 
2.663e-08 2.663e-08 2.663e-08 2.663e-08 2.663e-08 2.663e-08 2.663e-08 2.663e-08 2.663e-08 2.663e-08 2.663e-08 2.663e-08 2.663e-08 2.663e-08 2.663e-08 2.663e-08 2.663e-08 2.663e-08 2.663e-08 2.663e-08 2.663e-08 
1.211e-07 1.211e-07 1.211e-07 1.211e-07 1.211e-07 1.211e-07 1.211e-07 1.211e-07 1.211e-07 1.211e-07 1.211e-07 1.211e-07 1.211e-07 1.211e-07 1.211e-07 1.211e-07 1.211e-07 1.211e-07 1.211e-07 1.211e-07 1.211e-07 
5.11e-07 5.11e-07 5.11e-07 5.111e-07 5.111e-07 5.111e-07 5.111e-07 5.111e-07 5.111e-07 5.111e-07 5.111e-07 5.111e-07 5.111e-07 5.111e-07 5.11e-07 5.11e-07 5.11e-07 5.11e-07 5.11e-07 5.11e-07 5.11e-07 
2.002e-06 2.002e-06 2.002e-06 2.002e-06 2.002e-06 2.002e-06 2.002e-06 2.002e-06 2.002e-06 2.002e-06 2.002e-06 2.002e-06 2.002e-06 2.002e-06 2.002e-06 2.002e-06 2.002e-06 2.002e-06 2.002e-06 2.002e-06 2.002e-06 
7.286e-06 7.287e-06 7.287e-06 7.287e-06 7.287e-06 7.287e-06 7.287e-06 7.287e-06 7.287e-06 7.287e-06 7.287e-06 7.287e-06 7.287e-06 7.287e-06 7.287e-06 7.287e-06 7.287e-06 7.286e-06 7.286e-06 7.286e-06 7.286e-06 
2.464e-05 2.464e-05 2.464e-05 2.464e-05 2.464e-05 2.464e-05 2.464e-05 2.464e-05 2.464e-05 2.464e-05 2.464e-05 2.464e-05 2.464e-05 2.464e-05 2.464e-05 2.464e-05 2.464e-05 2.464e-05 2.464e-05 2.464e-05 2.464e-05 
7.741e-05 7.741e-05 7.741e-05 7.741e-05 7.741e-05 7.741e-05 7.741e-05 7.741e-05 7.741e-05 7.741e-05 7.741e-05 7.741e-05 7.741e-05 7.741e-05 7.741e-05 7.741e-05 7.741e-05 7.741e-05 7.741e-05 7.741e-05 7.741e-05 
0.000226 0.000226 0.000226 0.000226 0.000226 0.000226 0.000226 0.000226 0.000226 0.000226 0.000226 0.000226 0.000226 0.000226 0.000226 0.000226 0.000226 0.000226 0.000226 0.000226 0.000226 
0.000613 0.000613 0.000613 0.0006131 0.0006131 0.0006131 0.0006131 0.0006131 0.0006131 0.000613 0.000613 0.000613 0.000613 0.000613 0.000613 0.000613 0.000613 0.000613 0.000613 0.000613 0.000613 
</DataArray>
<DataArray Name="E" NumberOfComponents="1" format="ascii" type="Float64">
0.5742 0.5742 0.5742 0.5742 0.5742 0.5742 0.5742 0.5742 0.5742 0.5742 0.5742 0.5742 0.5742 0.5741 0.5741 0.5741 0.5741 0.5741 0.5741 0.5741 0.5741 
0.5742 0.5742 0.5742 0.5742 0.5742 0.5742 0.5742 0.5742 0.5742 0.5742 0.5742 0.5742 0.5742 0.5741 0.5741 0.5741 0.5741 0.5741 0.5741 0.5741 0.5741 
0.5742 0.5742 0.5742 0.5742 0.5742 0.5742 0.5742 0.5742 0.5742 0.5742 0.5742 0.5742 0.5742 0.5741 0.5741 0.5741 0.5741 0.5741 0.5741 0.5741 0.5741 
0.5742 0.5742 0.5742 0.5742 0.5742 0.5742 0.5742 0.5742 0.5742 0.5742 0.5742 0.5742 0.5742 0.5741 0.5741 0.5741 0.5741 0.5741 0.5741 0.5741 0.5741 
0.5742 0.5742 0.5742 0.5742 0.5742 0.5742 0.5742 0.5742 0.5742 0.5742 0.5742 0.5742 0.5742 0.5741 0.5741 0.5741 0.5741 0.5741 0.5741 0.5741 0.5741 
0.5742 0.5742 0.5742 0.5742 0.5742 0.5742 0.5742 0.5742 0.5742 0.5742 0.5742 0.5742 0.5742 0.5741 0.5741 0.5741 0.5741 0.5741 0.5741 0.5741 0.5741 
0.5742 0.5742 0.5742 0.5742 0.5742 0.5742 0.5742 0.5742 0.5742 0.5742 0.5742 0.5742 0.5742 0.5741 0.5741 0.5741 0.5741 0.5741 0.5741 0.5741 0.5741 
0.5742 0.5742 0.5742 0.5742 0.5742 0.5742 0.5742 0.5742 0.5742 0.5742 0.5742 0.5742 0.5742 0.5741 0.5741 0.5741 0.5741 0.5741 0.5741 0.5741 0.5741 
0.5742 0.5742 0.5742 0.5742 0.5742 0.5742 0.5742 0.5742 0.5742 0.5742 0.5742 0.5742 0.5742 0.5741 0.5741 0.5741 0.5741 0.5741 0.5741 0.5741 0.5741 
0.5742 0.5742 0.5742 0.5742 0.5742 0.5742 0.5742 0.5742 0.5742 0.5742 0.5742 0.5742 0.5742 0.5741 0.5741 0.5741 0.5741 0.5741 0.5741 0.5741 0.5741 
0.5742 0.5742 0.5742 0.5742 0.5742 0.5742 0.5742 0.5742 0.5742 0.5742 0.5742 0.5742 0.5742 0.5741 0.5741 0.5741 0.5741 0.5741 0.5741 0.5741 0.5741 
0.5742 0.5742 0.5742 0.5742 0.5742 0.5742 0.5742 0.5742 0.5742 0.5742 0.5742 0.5742 0.5742 0.5741 0.5741 0.5741 0.5741 0.5741 0.5741 0.5741 0.5741 
0.5742 0.5742 0.5742 0.5742 0.5742 0.5742 0.5742 0.5742 0.5742 0.5742 0.5742 0.5742 0.5742 0.5741 0.5741 0.5741 0.5741 0.5741 0.5741 0.5741 0.5741 
0.5742 0.5742 0.5742 0.5742 0.5742 0.5742 0.5742 0.5742 0.5742 0.5742 0.5742 0.5742 0.5742 0.5741 0.5741 0.5741 0.5741 0.5741 0.5741 0.5741 0.5741 
0.5742 0.5742 0.5742 0.5742 0.5742 0.5742 0.5742 0.5742 0.5742 0.5742 0.5742 0.5742 0.5742 0.5741 0.5741 0.5741 0.5741 0.5741 0.5741 0.5741 0.5741 
0.5742 0.5742 0.5742 0.5742 0.5742 0.5742 0.5742 0.5742 0.5742 0.5742 0.5742 0.5742 0.5742 0.5741 0.5741 0.5741 0.5741 0.5741 0.5741 0.5741 0.5741 
0.5742 0.5742 0.5742 0.5742 0.5742 0.5742 0.5742 0.5742 0.5742 0.5742 0.5742 0.5742 0.5742 0.5741 0.5741 0.5741 0.5741 0.5741 0.5741 0.5741 0.5741 
0.5742 0.5742 0.5742 0.5742 0.5742 0.5742 0.5742 0.5742 0.5742 0.5742 0.5742 0.5742 0.5742 0.5741 0.5741 0.5741 0.5741 0.5741 0.5741 0.5741 0.5741 
0.5742 0.5742 0.5742 0.5742 0.5742 0.5742 0.5742 0.5742 0.5742 0.5742 0.5742 0.5742 0.5742 0.5741 0.5741 0.5741 0.5741 0.5741 0.5741 0.5741 0.5741 
0.5742 0.5742 0.5742 0.5742 0.5742 0.5742 0.5742 0.5742 0.5742 0.5742 0.5742 0.5742 0.5742 0.5741 0.5741 0.5741 0.5741 0.5741 0.5741 0.5741 0.5741 
0.5742 0.5742 0.5742 0.5742 0.5742 0.5742 0.5742 0.5742 0.5742 0.5742 0.5742 0.5742 0.5742 0.5741 0.5741 0.5741 0.5741 0.5741 0.5741 0.5741 0.5741 
0.5742 0.5742 0.5742 0.5742 0.5742 0.5742 0.5742 0.5742 0.5742 0.5742 0.5742 0.5742 0.5742 0.5741 0.5741 0.5741 0.5741 0.5741 0.5741 0.5741 0.5741 
0.5742 0.5742 0.5742 0.5742 0.5742 0.5742 0.5742 0.5742 0.5742 0.5742 0.5742 0.5742 0.5742 0.5741 0.5741 0.5741 0.5741 0.5741 0.5741 0.5741 0.5741 
0.5742 0.5742 0.5742 0.5742 0.5742 0.5742 0.5742 0.5742 0.5742 0.5742 0.5742 0.5742 0.5742 0.5741 0.5741 0.5741 0.5741 0.5741 0.5741 0.5741 0.5741 
0.5742 0.5742 0.5742 0.5742 0.5742 0.5742 0.5742 0.5742 0.5742 0.5742 0.5742 0.5742 0.5742 0.5741 0.5741 0.5741 0.5741 0.5741 0.5741 0.5741 0.5741 
0.5742 0.5742 0.5742 0.5742 0.5742 0.5742 0.5742 0.5742 0.5742 0.5742 0.5742 0.5742 0.5742 0.5741 0.5741 0.5741 0.5741 0.5741 0.5741 0.5741 0.5741 
0.5742 0.5742 0.5742 0.5742 0.5742 0.5742 0.5742 0.5742 0.5742 0.5742 0.5742 0.5742 0.5742 0.5741 0.5741 0.5741 0.5741 0.5741 0.5741 0.5741 0.5741 
0.5742 0.5742 0.5742 0.5742 0.5742 0.5742 0.5742 0.5742 0.5742 0.5742 0.5742 0.5742 0.5742 0.5741 0.5741 0.5741 0.5741 0.5741 0.5741 0.5741 0.5741 
0.5742 0.5742 0.5742 0.5742 0.5742 0.5742 0.5742 0.5742 0.5742 0.5742 0.5742 0.5742 0.5742 0.5741 0.5741 0.5741 0.5741 0.5741 0.5741 0.5741 0.5741 
0.5742 0.5742 0.5742 0.5742 0.5742 0.5742 0.5742 0.5742 0.5742 0.5742 0.5742 0.5742 0.5742 0.5741 0.5741 0.5741 0.5741 0.5741 0.5741 0.5741 0.5741 
0.5742 0.5742 0.5742 0.5742 0.5742 0.5742 0.5742 0.5742 0.5742 0.5742 0.5742 0.5742 0.5742 0.5741 0.5741 0.5741 0.5741 0.5741 0.5741 0.5741 0.5741 
0.5742 0.5742 0.5742 0.5742 0.5742 0.5742 0.5742 0.5742 0.5742 0.5742 0.5742 0.5742 0.5742 0.5741 0.5741 0.5741 0.5741 0.5741 0.5741 0.5741 0.5741 
0.5742 0.5742 0.5742 0.5742 0.5742 0.5742 0.5742 0.5742 0.5742 0.5742 0.5742 0.5742 0.5742 0.5741 0.5741 0.5741 0.5741 0.5741 0.5741 0.5741 0.5741 
0.5742 0.5742 0.5742 0.5742 0.5742 0.5742 0.5742 0.5742 0.5742 0.5742 0.5742 0.5742 0.5742 0.5741 0.5741 0.5741 0.5741 0.5741 0.5741 0.5741 0.5741 
0.5742 0.5742 0.5742 0.5742 0.5742 0.5742 0.5742 0.5742 0.5742 0.5742 0.5742 0.5742 0.5742 0.5741 0.5741 0.5741 0.5741 0.5741 0.5741 0.5741 0.5741 
0.5742 0.5742 0.5742 0.5742 0.5742 0.5742 0.5742 0.5742 0.5742 0.5742 0.5742 0.5742 0.5742 0.5741 0.5741 0.5741 0.5741 0.5741 0.5741 0.5741 0.5741 
0.5742 0.5742 0.5742 0.5742 0.5742 0.5742 0.5742 0.5742 0.5742 0.5742 0.5742 0.5742 0.5742 0.5741 0.5741 0.5741 0.5741 0.5741 0.5741 0.5741 0.5741 
0.5742 0.5742 0.5742 0.5742 0.5742 0.5742 0.5742 0.5742 0.5742 0.5742 0.5742 0.5742 0.5742 0.5741 0.5741 0.5741 0.5741 0.5741 0.5741 0.5741 0.5741 
0.5742 0.5742 0.5742 0.5742 0.5742 0.5742 0.5742 0.5742 0.5742 0.5742 0.5742 0.5742 0.5742 0.5741 0.5741 0.5741 0.5741 0.5741 0.5741 0.5741 0.5741 
0.5742 0.5742 0.5742 0.5742 0.5742 0.5742 0.5742 0.5742 0.5742 0.5742 0.5742 0.5742 0.5742 0.5741 0.5741 0.5741 0.5741 0.5741 0.5741 0.5741 0.5741 
0.5742 0.5742 0.5742 0.5742 0.5742 0.5742 0.5742 0.5742 0.5742 0.5742 0.5742 0.5742 0.5742 0.5741 0.5741 0.5741 0.5741 0.5741 0.5741 0.5741 0.5741 
</DataArray>
<DataArray Name="ne" NumberOfComponents="1" format="ascii" type="Float64">
0.9996 0.9996 0.9996 0.9996 0.9996 0.9996 0.9996 0.9996 0.9996 0.9996 0.9996 0.9996 0.9996 0.9996 0.9996 0.9996 0.9996 0.9996 0.9996 0.9996 0.9996 
0.9996 0.9996 0.9996 0.9996 0.9996 0.9996 0.9996 0.9996 0.9996 0.9996 0.9996 0.9996 0.9996 0.9996 0.9996 0.9996 0.9996 0.9996 0.9996 0.9996 0.9996 
0.9996 0.9996 0.9996 0.9996 0.9996 0.9996 0.9996 0.9996 0.9996 0.9996 0.9996 0.9996 0.9996 0.9996 0.9996 0.9996 0.9996 0.9996 0.9996 0.9996 0.9996 
0.9996 0.9996 0.9996 0.9996 0.9996 0.9996 0.9996 0.9996 0.9996 0.9996 0.9996 0.9996 0.9996 0.9996 0.9996 0.9996 0.9996 0.9996 0.9996 0.9996 0.9996 
0.9996 0.9996 0.9996 0.9996 0.9996 0.9996 0.9996 0.9996 0.9996 0.9996 0.9996 0.9996 0.9996 0.9996 0.9996 0.9996 0.9996 0.9996 0.9996 0.9996 0.9996 
0.9996 0.9996 0.9996 0.9996 0.9996 0.9996 0.9996 0.9996 0.9996 0.9996 0.9996 0.9996 0.9996 0.9996 0.9996 0.9996 0.9996 0.9996 0.9996 0.9996 0.9996 
0.9996 0.9996 0.9996 0.9996 0.9996 0.9996 0.9996 0.9996 0.9996 0.9996 0.9996 0.9996 0.9996 0.9996 0.9996 0.9996 0.9996 0.9996 0.9996 0.9996 0.9996 
0.9996 0.9996 0.9996 0.9996 0.9996 0.9996 0.9996 0.9996 0.9996 0.9996 0.9996 0.9996 0.9996 0.9996 0.9996 0.9996 0.9996 0.9996 0.9996 0.9996 0.9996 
0.9996 0.9996 0.9996 0.9996 0.9996 0.9996 0.9996 0.9996 0.9996 0.9996 0.9996 0.9996 0.9996 0.9996 0.9996 0.9996 0.9996 0.9996 0.9996 0.9996 0.9996 
0.9996 0.9996 0.9996 0.9996 0.9996 0.9996 0.9996 0.9996 0.9996 0.9996 0.9996 0.9996 0.9996 0.9996 0.9996 0.9996 0.9996 0.9996 0.9996 0.9996 0.9996 
0.9996 0.9996 0.9996 0.9996 0.9996 0.9996 0.9996 0.9996 0.9996 0.9996 0.9996 0.9996 0.9996 0.9996 0.9996 0.9996 0.9996 0.9996 0.9996 0.9996 0.9996 
0.9996 0.9996 0.9996 0.9996 0.9996 0.9996 0.9996 0.9996 0.9996 0.9996 0.9996 0.9996 0.9996 0.9996 0.9996 0.9996 0.9996 0.9996 0.9996 0.9996 0.9996 
0.9996 0.9996 0.9996 0.9996 0.9996 0.9996 0.9996 0.9996 0.9996 0.9996 0.9996 0.9996 0.9996 0.9996 0.9996 0.9996 0.9996 0.9996 0.9996 0.9996 0.9996 
0.9996 0.9996 0.9996 0.9996 0.9996 0.9996 0.9996 0.9996 0.9996 0.9996 0.9996 0.9996 0.9996 0.9996 0.9996 0.9996 0.9996 0.9996 0.9996 0.9996 0.9996 
0.9996 0.9996 0.9996 0.9996 0.9996 0.9996 0.9996 0.9996 0.9996 0.9996 0.9996 0.9996 0.9996 0.9996 0.9996 0.9996 0.9996 0.9996 0.9996 0.9996 0.9996 
0.9996 0.9996 0.9996 0.9996 0.9996 0.9996 0.9996 0.9996 0.9996 0.9996 0.9996 0.9996 0.9996 0.9996 0.9996 0.9996 0.9996 0.9996 0.9996 0.9996 0.9996 
0.9996 0.9996 0.9996 0.9996 0.9996 0.9996 0.9996 0.9996 0.9996 0.9996 0.9996 0.9996 0.9996 0.9996 0.9996 0.9996 0.9996 0.9996 0.9996 0.9996 0.9996 
0.9996 0.9996 0.9996 0.9996 0.9996 0.9996 0.9996 0.9996 0.9996 0.9996 0.9996 0.9996 0.9996 0.9996 0.9996 0.9996 0.9996 0.9996 0.9996 0.9996 0.9996 
0.9996 0.9996 0.9996 0.9996 0.9996 0.9996 0.9996 0.9996 0.9996 0.9996 0.9996 0.9996 0.9996 0.9996 0.9996 0.9996 0.9996 0.9996 0.9996 0.9996 0.9996 
0.9996 0.9996 0.9996 0.9996 0.9996 0.9996 0.9996 0.9996 0.9996 0.9996 0.9996 0.9996 0.9996 0.9996 0.9996 0.9996 0.9996 0.9996 0.9996 0.9996 0.9996 
0.9996 0.9996 0.9996 0.9996 0.9996 0.9996 0.9996 0.9996 0.9996 0.9996 0.9996 0.9996 0.9996 0.9996 0.9996 0.9996 0.9996 0.9996 0.9996 0.9996 0.9996 
0.9996 0.9996 0.9996 0.9996 0.9996 0.9996 0.9996 0.9996 0.9996 0.9996 0.9996 0.9996 0.9996 0.9996 0.9996 0.9996 0.9996 0.9996 0.9996 0.9996 0.9996 
0.9996 0.9996 0.9996 0.9996 0.9996 0.9996 0.9996 0.9996 0.9996 0.9996 0.9996 0.9996 0.9996 0.9996 0.9996 0.9996 0.9996 0.9996 0.9996 0.9996 0.9996 
0.9996 0.9996 0.9996 0.9996 0.9996 0.9996 0.9996 0.9996 0.9996 0.9996 0.9996 0.9996 0.9996 0.9996 0.9996 0.9996 0.9996 0.9996 0.9996 0.9996 0.9996 
0.9996 0.9996 0.9996 0.9996 0.9996 0.9996 0.9996 0.9996 0.9996 0.9996 0.9996 0.9996 0.9996 0.9996 0.9996 0.9996 0.9996 0.9996 0.9996 0.9996 0.9996 
0.9996 0.9996 0.9996 0.9996 0.9996 0.9996 0.9996 0.9996 0.9996 0.9996 0.9996 0.9996 0.9996 0.9996 0.9996 0.9996 0.9996 0.9996 0.9996 0.9996 0.9996 
0.9996 0.9996 0.9996 0.9996 0.9996 0.9996 0.9996 0.9996 0.9996 0.9996 0.9996 0.9996 0.9996 0.9996 0.9996 0.9996 0.9996 0.9996 0.9996 0.9996 0.9996 
0.9996 0.9996 0.9996 0.9996 0.9996 0.9996 0.9996 0.9996 0.9996 0.9996 0.9996 0.9996 0.9996 0.9996 0.9996 0.9996 0.9996 0.9996 0.9996 0.9996 0.9996 
0.9996 0.9996 0.9996 0.9996 0.9996 0.9996 0.9996 0.9996 0.9996 0.9996 0.9996 0.9996 0.9996 0.9996 0.9996 0.9996 0.9996 0.9996 0.9996 0.9996 0.9996 
0.9996 0.9996 0.9996 0.9996 0.9996 0.9996 0.9996 0.9996 0.9996 0.9996 0.9996 0.9996 0.9996 0.9996 0.9996 0.9996 0.9996 0.9996 0.9996 0.9996 0.9996 
0.9996 0.9996 0.9996 0.9996 0.9996 0.9996 0.9996 0.9996 0.9996 0.9996 0.9996 0.9996 0.9996 0.9996 0.9996 0.9996 0.9996 0.9996 0.9996 0.9996 0.9996 
0.9996 0.9996 0.9996 0.9996 0.9996 0.9996 0.9996 0.9996 0.9996 0.9996 0.9996 0.9996 0.9996 0.9996 0.9996 0.9996 0.9996 0.9996 0.9996 0.9996 0.9996 
0.9996 0.9996 0.9996 0.9996 0.9996 0.9996 0.9996 0.9996 0.9996 0.9996 0.9996 0.9996 0.9996 0.9996 0.9996 0.9996 0.9996 0.9996 0.9996 0.9996 0.9996 
0.9996 0.9996 0.9996 0.9996 0.9996 0.9996 0.9996 0.9996 0.9996 0.9996 0.9996 0.9996 0.9996 0.9996 0.9996 0.9996 0.9996 0.9996 0.9996 0.9996 0.9996 
0.9996 0.9996 0.9996 0.9996 0.9996 0.9996 0.9996 0.9996 0.9996 0.9996 0.9996 0.9996 0.9996 0.9996 0.9996 0.9996 0.9996 0.9996 0.9996 0.9996 0.9996 
0.9996 0.9996 0.9996 0.9996 0.9996 0.9996 0.9996 0.9996 0.9996 0.9996 0.9996 0.9996 0.9996 0.9996 0.9996 0.9996 0.9996 0.9996 0.9996 0.9996 0.9996 
0.9996 0.9996 0.9996 0.9996 0.9996 0.9996 0.9996 0.9996 0.9996 0.9996 0.9996 0.9996 0.9996 0.9996 0.9996 0.9996 0.9996 0.9996 0.9996 0.9996 0.9996 
0.9996 0.9996 0.9996 0.9996 0.9996 0.9996 0.9996 0.9996 0.9996 0.9996 0.9996 0.9996 0.9996 0.9996 0.9996 0.9996 0.9996 0.9996 0.9996 0.9996 0.9996 
0.9996 0.9996 0.9996 0.9996 0.9996 0.9996 0.9996 0.9996 0.9996 0.9996 0.9996 0.9996 0.9996 0.9996 0.9996 0.9996 0.9996 0.9996 0.9996 0.9996 0.9996 
0.9996 0.9996 0.9996 0.9996 0.9996 0.9996 0.9996 0.9996 0.9996 0.9996 0.9996 0.9996 0.9996 0.9996 0.9996 0.9996 0.9996 0.9996 0.9996 0.9996 0.9996 
0.9996 0.9996 0.9996 0.9996 0.9996 0.9996 0.9996 0.9996 0.9996 0.9996 0.9996 0.9996 0.9996 0.9996 0.9996 0.9996 0.9996 0.9996 0.9996 0.9996 0.9996 
</DataArray>
</PointData>
</Piece>
</ImageData>
</VTKFile>
