<VTKFile type="ImageData">
<ImageData Origin="0 -10 0" Spacing="0.5 0.5 1" WholeExtent="0 20 0 40 0 0">
<Piece Extent="0 20 0 40 0 0">
<PointData>
<DataArray Name="f" NumberOfComponents="1" format="ascii" type="Float64">
0.0007729 0.0007729 0.0007729 0.0007729 0.0007729 0.0007729 0.0007729 0.0007729 0.0007729 0.0007729 0.0007729 0.0007729 0.0007729 0.0007729 0.0007729 0.0007729 0.0007729 0.0007729 0.0007729 0.0007729 0.0007729 
0.001843 0.001843 0.001843 0.001842 0.001842 0.001842 0.001842 0.001842 0.001842 0.001842 0.001842 0.001842 0.001842 0.001842 0.001842 0.001842 0.001842 0.001842 0.001842 0.001843 0.001843 
0.004097 0.004097 0.004097 0.004097 0.004097 0.004097 0.004097 0.004097 0.004097 0.004097 0.004097 0.004097 0.004097 0.004097 0.004097 0.004097 0.004097 0.004097 0.004097 0.004097 0.004097 
0.008495 0.008495 0.008495 0.008495 0.008495 0.008495 0.008495 0.008495 0.008495 0.008495 0.008495 0.008495 0.008495 0.008495 0.008495 0.008495 0.008495 0.008495 0.008495 0.008495 0.008495 
0.01641 0.01641 0.01641 0.01641 0.01641 0.01641 0.01641 0.01641 0.01641 0.01641 0.01641 0.01641 0.01641 0.01641 0.01641 0.01641 0.01641 0.01641 0.01641 0.01641 0.01641 
0.02953 0.02953 0.02953 0.02953 0.02953 0.02953 0.02953 0.02953 0.02953 0.02953 0.02953 0.02953 0.02953 0.02953 0.02953 0.02953 0.02953 0.02953 0.02953 0.02953 0.02953 
0.04945 0.04945 0.04945 0.04945 0.04945 0.04945 0.04945 0.04945 0.04945 0.04945 0.04945 0.04945 0.04945 0.04945 0.04945 0.04945 0.04945 0.04945 0.04945 0.04945 0.04945 
0.07697 0.07697 0.07697 0.07697 0.07697 0.07697 0.07697 0.07697 0.07697 0.07697 0.07697 0.07697 0.07697 0.07697 0.07697 0.07697 0.07697 0.07697 0.07697 0.07697 0.07697 
0.1113 0.1113 0.1113 0.1113 0.1113 0.1113 0.1113 0.1113 0.1113 0.1113 0.1113 0.1113 0.1113 0.1113 0.1113 0.1113 0.1113 0.1113 0.1113 0.1113 0.1113 
0.1493 0.1493 0.1493 0.1493 0.1493 0.1493 0.1493 0.1493 0.1493 0.1493 0.1493 0.1493 0.1493 0.1493 0.1493 0.1493 0.1493 0.1493 0.1493 0.1493 0.1493 
0.1855 0.1855 0.1855 0.1855 0.1855 0.1855 0.1855 0.1855 0.1855 0.1855 0.1855 0.1855 0.1855 0.1855 0.1855 0.1855 0.1855 0.1855 0.1855 0.1855 0.1855 
0.2134 0.2134 0.2134 0.2134 0.2134 0.2134 0.2134 0.2134 0.2134 0.2134 0.2134 0.2134 0.2134 0.2134 0.2134 0.2134 0.2134 0.2134 0.2134 0.2134 0.2134 
0.2268 0.2268 0.2268 0.2268 0.2268 0.2268 0.2268 0.2268 0.2268 0.2268 0.2268 0.2268 0.2268 0.2268 0.2268 0.2268 0.2268 0.2268 0.2268 0.2268 0.2268 
0.2224 0.2224 0.2224 0.2224 0.2224 0.2224 0.2224 0.2224 0.2224 0.2224 0.2224 0.2224 0.2224 0.2224 0.2224 0.2224 0.2224 0.2224 0.2224 0.2224 0.2224 
0.2008 0.2008 0.2008 0.2008 0.2008 0.2008 0.2008 0.2008 0.2008 0.2008 0.2008 0.2008 0.2008 0.2008 0.2008 0.2008 0.2008 0.2008 0.2008 0.2008 0.2008 
0.1667 0.1667 0.1667 0.1667 0.1667 0.1667 0.1667 0.1667 0.1667 0.1667 0.1667 0.1667 0.1667 0.1667 0.1667 0.1667 0.1667 0.1667 0.1667 0.1667 0.1667 
0.127 0.127 0.127 0.127 0.127 0.127 0.127 0.127 0.127 0.127 0.127 0.127 0.127 0.127 0.127 0.127 0.127 0.127 0.127 0.127 0.127 
0.08854 0.08854 0.08854 0.08854 0.08854 0.08854 0.08854 0.08854 0.08854 0.08854 0.08854 0.08854 0.08854 0.08854 0.08854 0.08854 0.08854 0.08854 0.08854 0.08854 0.08854 
0.0564 0.0564 0.0564 0.0564 0.05641 0.05641 0.05641 0.05641 0.05641 0.05641 0.05641 0.05641 0.05641 0.05641 0.05641 0.05641 0.05641 0.05641 0.05641 0.05641 0.0564 
0.03275 0.03275 0.03275 0.03275 0.03275 0.03275 0.03275 0.03275 0.03275 0.03275 0.03275 0.03275 0.03275 0.03275 0.03275 0.03275 0.03275 0.03275 0.03275 0.03275 0.03275 
0.01729 0.01729 0.01729 0.01729 0.01729 0.01729 0.01729 0.01729 0.01729 0.01729 0.01729 0.01729 0.01729 0.01729 0.01729 0.01729 0.01729 0.01729 0.01729 0.01729 0.01729 
0.008277 0.008276 0.008276 0.008276 0.008276 0.008277 0.008277 0.008277 0.008277 0.008277 0.008277 0.008277 0.008277 0.008277 0.008278 0.008278 0.008278 0.008278 0.008278 0.008278 0.008277 
0.003584 0.003583 0.003583 0.003583 0.003583 0.003583 0.003583 0.003583 0.003583 0.003583 0.003583 0.003583 0.003584 0.003584 0.003584 0.003584 0.003584 0.003584 0.003584 0.003584 0.003584 
0.001399 0.001399 0.001399 0.001399 0.001399 0.001399 0.001399 0.001399 0.001399 0.001399 0.001399 0.001399 0.001399 0.001399 0.001399 0.001399 0.001399 0.001399 0.001399 0.001399 0.001399 
0.0004913 0.0004913 0.0004912 0.0004912 0.0004912 0.0004912 0.0004912 0.0004912 0.0004912 0.0004912 0.0004912 0.0004912 0.0004912 0.0004912 0.0004912 0.0004912 0.0004913 0.0004913 0.0004913 0.0004913 0.0004913 
0.0001546 0.0001546 0.0001546 0.0001546 0.0001546 0.0001546 0.0001546 0.0001546 0.0001546 0.0001546 0.0001546 0.0001546 0.0001546 0.0001546 0.0001546 0.0001546 0.0001546 0.0001546 0.0001546 0.0001546 0.0001546 
4.35e-05 4.35e-05 4.349e-05 4.349e-05 4.349e-05 4.348e-05 4.348e-05 4.348e-05 4.348e-05 4.348e-05 4.348e-05 4.349e-05 4.349e-05 4.349e-05 4.349e-05 4.349e-05 4.349e-05 4.349e-05 4.349e-05 4.35e-05 4.35e-05 
1.09e-05 1.09e-05 1.09e-05 1.09e-05 1.09e-05 1.09e-05 1.09e-05 1.09e-05 1.09e-05 1.09e-05 1.09e-05 1.09e-05 1.09e-05 1.09e-05 1.09e-05 1.09e-05 1.09e-05 1.09e-05 1.09e-05 1.09e-05 1.09e-05 
2.424e-06 2.424e-06 2.424e-06 2.424e-06 2.424e-06 2.424e-06 2.424e-06 2.424e-06 2.424e-06 2.424e-06 2.424e-06 2.424e-06 2.424e-06 2.424e-06 2.424e-06 2.424e-06 2.424e-06 2.424e-06 2.424e-06 2.424e-06 2.424e-06 
4.772e-07 4.772e-07 4.772e-07 4.772e-07 4.772e-07 4.772e-07 4.771e-07 4.771e-07 4.771e-07 4.771e-07 4.771e-07 4.771e-07 4.771e-07 4.771e-07 4.771e-07 4.771e-07 4.771e-07 4.771e-07 4.772e-07 4.772e-07 4.772e-07 
8.334e-08 8.334e-08 8.334e-08 8.334e-08 8.334e-08 8.334e-08 8.333e-08 8.332e-08 8.332e-08 8.331e-08 8.331e-08 8.331e-08 8.331e-08 8.332e-08 8.332e-08 8.332e-08 8.332e-08 8.333e-08 8.333e-08 8.334e-08 8.334e-08 
1.554e-08 1.554e-08 1.554e-08 1.554e-08 1.554e-08 1.554e-08 1.554e-08 1.554e-08 1.553e-08 1.553e-08 1.553e-08 1.553e-08 1.553e-08 1.553e-08 1.553e-08 1.553e-08 1.553e-08 1.553e-08 1.554e-08 1.554e-08 1.554e-08 
1.563e-08 1.563e-08 1.563e-08 1.563e-08 1.563e-08 1.563e-08 1.563e-08 1.563e-08 1.563e-08 1.563e-08 1.563e-08 1.563e-08 1.563e-08 1.563e-08 1.563e-08 1.563e-08 1.563e-08 1.563e-08 1.563e-08 1.563e-08 1.563e-08 
6.213e-08 6.213e-08 6.213e-08 6.213e-08 6.213e-08 6.213e-08 6.213e-08 6.213e-08 6.213e-08 6.213e-08 6.213e-08 6.213e-08 6.213e-08 6.213e-08 6.213e-08 6.213e-08 6.213e-08 6.213e-08 6.213e-08 6.213e-08 6.213e-08 
2.564e-07 2.564e-07 2.564e-07 2.564e-07 2.564e-07 2.564e-07 2.564e-07 2.564e-07 2.564e-07 2.564e-07 2.564e-07 2.564e-07 2.564e-07 2.564e-07 2.564e-07 2.564e-07 2.564e-07 2.564e-07 2.564e-07 2.564e-07 2.564e-07 
9.903e-07 9.903e-07 9.903e-07 9.903e-07 9.903e-07 9.903e-07 9.903e-07 9.903e-07 9.903e-07 9.902e-07 9.902e-07 9.902e-07 9.902e-07 9.902e-07 9.902e-07 9.902e-07 9.902e-07 9.902e-07 9.902e-07 9.902e-07 9.903e-07 
3.569e-06 3.569e-06 3.569e-06 3.569e-06 3.569e-06 3.569e-06 3.569e-06 3.569e-06 3.569e-06 3.569e-06 3.569e-06 3.569e-06 3.569e-06 3.569e-06 3.569e-06 3.569e-06 3.569e-06 3.569e-06 3.569e-06 3.569e-06 3.569e-06 
1.2e-05 1.201e-05 1.201e-05 1.201e-05 1.201e-05 1.201e-05 1.201e-05 1.201e-05 1.201e-05 1.201e-05 1.201e-05 1.201e-05 1.201e-05 1.201e-05 1.2e-05 1.2e-05 1.2e-05 1.2e-05 1.2e-05 1.2e-05 1.2e-05 
3.77e-05 3.77e-05 3.77e-05 3.77e-05 3.77e-05 3.77e-05 3.77e-05 3.77e-05 3.77e-05 3.77e-05 3.77e-05 3.77e-05 3.77e-05 3.77e-05 3.77e-05 3.77e-05 3.77e-05 3.77e-05 3.77e-05 3.77e-05 3.77e-05 
0.0001105 0.0001105 0.0001105 0.0001105 0.0001105 0.0001105 0.0001105 0.0001105 0.0001105 0.0001105 0.0001105 0.0001105 0.0001105 0.0001105 0.0001105 0.0001105 0.0001105 0.0001105 0.0001105 0.0001105 0.0001105 
0.0003025 0.0003025 0.0003025 0.0003025 0.0003025 0.0003025 0.0003025 0.0003025 0.0003025 0.0003025 0.0003025 0.0003025 0.0003025 0.0003025 0.0003025 0.0003025 0.0003025 0.0003025 0.0003025 0.0003025 0.0003025 
</DataArray>
<DataArray Name="E" NumberOfComponents="1" format="ascii" type="Float64">
-1.132 -1.132 -1.132 -1.132 -1.132 -1.132 -1.132 -1.132 -1.132 -1.132 -1.132 -1.132 -1.132 -1.132 -1.132 -1.132 -1.132 -1.132 -1.132 -1.132 -1.132 
-1.132 -1.132 -1.132 -1.132 -1.132 -1.132 -1.132 -1.132 -1.132 -1.132 -1.132 -1.132 -1.132 -1.132 -1.132 -1.132 -1.132 -1.132 -1.132 -1.132 -1.132 
-1.132 -1.132 -1.132 -1.132 -1.132 -1.132 -1.132 -1.132 -1.132 -1.132 -1.132 -1.132 -1.132 -1.132 -1.132 -1.132 -1.132 -1.132 -1.132 -1.132 -1.132 
-1.132 -1.132 -1.132 -1.132 -1.132 -1.132 -1.132 -1.132 -1.132 -1.132 -1.132 -1.132 -1.132 -1.132 -1.132 -1.132 -1.132 -1.132 -1.132 -1.132 -1.132 
-1.132 -1.132 -1.132 -1.132 -1.132 -1.132 -1.132 -1.132 -1.132 -1.132 -1.132 -1.132 -1.132 -1.132 -1.132 -1.132 -1.132 -1.132 -1.132 -1.132 -1.132 
-1.132 -1.132 -1.132 -1.132 -1.132 -1.132 -1.132 -1.132 -1.132 -1.132 -1.132 -1.132 -1.132 -1.132 -1.132 -1.132 -1.132 -1.132 -1.132 -1.132 -1.132 
-1.132 -1.132 -1.132 -1.132 -1.132 -1.132 -1.132 -1.132 -1.132 -1.132 -1.132 -1.132 -1.132 -1.132 -1.132 -1.132 -1.132 -1.132 -1.132 -1.132 -1.132 
-1.132 -1.132 -1.132 -1.132 -1.132 -1.132 -1.132 -1.132 -1.132 -1.132 -1.132 -1.132 -1.132 -1.132 -1.132 -1.132 -1.132 -1.132 -1.132 -1.132 -1.132 
-1.132 -1.132 -1.132 -1.132 -1.132 -1.132 -1.132 -1.132 -1.132 -1.132 -1.132 -1.132 -1.132 -1.132 -1.132 -1.132 -1.132 -1.132 -1.132 -1.132 -1.132 
-1.132 -1.132 -1.132 -1.132 -1.132 -1.132 -1.132 -1.132 -1.132 -1.132 -1.132 -1.132 -1.132 -1.132 -1.132 -1.132 -1.132 -1.132 -1.132 -1.132 -1.132 
-1.132 -1.132 -1.132 -1.132 -1.132 -1.132 -1.132 -1.132 -1.132 -1.132 -1.132 -1.132 -1.132 -1.132 -1.132 -1.132 -1.132 -1.132 -1.132 -1.132 -1.132 
-1.132 -1.132 -1.132 -1.132 -1.132 -1.132 -1.132 -1.132 -1.132 -1.132 -1.132 -1.132 -1.132 -1.132 -1.132 -1.132 -1.132 -1.132 -1.132 -1.132 -1.132 
-1.132 -1.132 -1.132 -1.132 -1.132 -1.132 -1.132 -1.132 -1.132 -1.132 -1.132 -1.132 -1.132 -1.132 -1.132 -1.132 -1.132 -1.132 -1.132 -1.132 -1.132 
-1.132 -1.132 -1.132 -1.132 -1.132 -1.132 -1.132 -1.132 -1.132 -1.132 -1.132 -1.132 -1.132 -1.132 -1.132 -1.132 -1.132 -1.132 -1.132 -1.132 -1.132 
-1.132 -1.132 -1.132 -1.132 -1.132 -1.132 -1.132 -1.132 -1.132 -1.132 -1.132 -1.132 -1.132 -1.132 -1.132 -1.132 -1.132 -1.132 -1.132 -1.132 -1.132 
-1.132 -1.132 -1.132 -1.132 -1.132 -1.132 -1.132 -1.132 -1.132 -1.132 -1.132 -1.132 -1.132 -1.132 -1.132 -1.132 -1.132 -1.132 -1.132 -1.132 -1.132 
-1.132 -1.132 -1.132 -1.132 -1.132 -1.132 -1.132 -1.132 -1.132 -1.132 -1.132 -1.132 -1.132 -1.132 -1.132 -1.132 -1.132 -1.132 -1.132 -1.132 -1.132 
-1.132 -1.132 -1.132 -1.132 -1.132 -1.132 -1.132 -1.132 -1.132 -1.132 -1.132 -1.132 -1.132 -1.132 -1.132 -1.132 -1.132 -1.132 -1.132 -1.132 -1.132 
-1.132 -1.132 -1.132 -1.132 -1.132 -1.132 -1.132 -1.132 -1.132 -1.132 -1.132 -1.132 -1.132 -1.132 -1.132 -1.132 -1.132 -1.132 -1.132 -1.132 -1.132 
-1.132 -1.132 -1.132 -1.132 -1.132 -1.132 -1.132 -1.132 -1.132 -1.132 -1.132 -1.132 -1.132 -1.132 -1.132 -1.132 -1.132 -1.132 -1.132 -1.132 -1.132 
-1.132 -1.132 -1.132 -1.132 -1.132 -1.132 -1.132 -1.132 -1.132 -1.132 -1.132 -1.132 -1.132 -1.132 -1.132 -1.132 -1.132 -1.132 -1.132 -1.132 -1.132 
-1.132 -1.132 -1.132 -1.132 -1.132 -1.132 -1.132 -1.132 -1.132 -1.132 -1.132 -1.132 -1.132 -1.132 -1.132 -1.132 -1.132 -1.132 -1.132 -1.132 -1.132 
-1.132 -1.132 -1.132 -1.132 -1.132 -1.132 -1.132 -1.132 -1.132 -1.132 -1.132 -1.132 -1.132 -1.132 -1.132 -1.132 -1.132 -1.132 -1.132 -1.132 -1.132 
-1.132 -1.132 -1.132 -1.132 -1.132 -1.132 -1.132 -1.132 -1.132 -1.132 -1.132 -1.132 -1.132 -1.132 -1.132 -1.132 -1.132 -1.132 -1.132 -1.132 -1.132 
-1.132 -1.132 -1.132 -1.132 -1.132 -1.132 -1.132 -1.132 -1.132 -1.132 -1.132 -1.132 -1.132 -1.132 -1.132 -1.132 -1.132 -1.132 -1.132 -1.132 -1.132 
-1.132 -1.132 -1.132 -1.132 -1.132 -1.132 -1.132 -1.132 -1.132 -1.132 -1.132 -1.132 -1.132 -1.132 -1.132 -1.132 -1.132 -1.132 -1.132 -1.132 -1.132 
-1.132 -1.132 -1.132 -1.132 -1.132 -1.132 -1.132 -1.132 -1.132 -1.132 -1.132 -1.132 -1.132 -1.132 -1.132 -1.132 -1.132 -1.132 -1.132 -1.132 -1.132 
-1.132 -1.132 -1.132 -1.132 -1.132 -1.132 -1.132 -1.132 -1.132 -1.132 -1.132 -1.132 -1.132 -1.132 -1.132 -1.132 -1.132 -1.132 -1.132 -1.132 -1.132 
-1.132 -1.132 -1.132 -1.132 -1.132 -1.132 -1.132 -1.132 -1.132 -1.132 -1.132 -1.132 -1.132 -1.132 -1.132 -1.132 -1.132 -1.132 -1.132 -1.132 -1.132 
-1.132 -1.132 -1.132 -1.132 -1.132 -1.132 -1.132 -1.132 -1.132 -1.132 -1.132 -1.132 -1.132 -1.132 -1.132 -1.132 -1.132 -1.132 -1.132 -1.132 -1.132 
-1.132 -1.132 -1.132 -1.132 -1.132 -1.132 -1.132 -1.132 -1.132 -1.132 -1.132 -1.132 -1.132 -1.132 -1.132 -1.132 -1.132 -1.132 -1.132 -1.132 -1.132 
-1.132 -1.132 -1.132 -1.132 -1.132 -1.132 -1.132 -1.132 -1.132 -1.132 -1.132 -1.132 -1.132 -1.132 -1.132 -1.132 -1.132 -1.132 -1.132 -1.132 -1.132 
-1.132 -1.132 -1.132 -1.132 -1.132 -1.132 -1.132 -1.132 -1.132 -1.132 -1.132 -1.132 -1.132 -1.132 -1.132 -1.132 -1.132 -1.132 -1.132 -1.132 -1.132 
-1.132 -1.132 -1.132 -1.132 -1.132 -1.132 -1.132 -1.132 -1.132 -1.132 -1.132 -1.132 -1.132 -1.132 -1.132 -1.132 -1.132 -1.132 -1.132 -1.132 -1.132 
-1.132 -1.132 -1.132 -1.132 -1.132 -1.132 -1.132 -1.132 -1.132 -1.132 -1.132 -1.132 -1.132 -1.132 -1.132 -1.132 -1.132 -1.132 -1.132 -1.132 -1.132 
-1.132 -1.132 -1.132 -1.132 -1.132 -1.132 -1.132 -1.132 -1.132 -1.132 -1.132 -1.132 -1.132 -1.132 -1.132 -1.132 -1.132 -1.132 -1.132 -1.132 -1.132 
-1.132 -1.132 -1.132 -1.132 -1.132 -1.132 -1.132 -1.132 -1.132 -1.132 -1.132 -1.132 -1.132 -1.132 -1.132 -1.132 -1.132 -1.132 -1.132 -1.132 -1.132 
-1.132 -1.132 -1.132 -1.132 -1.132 -1.132 -1.132 -1.132 -1.132 -1.132 -1.132 -1.132 -1.132 -1.132 -1.132 -1.132 -1.132 -1.132 -1.132 -1.132 -1.132 
-1.132 -1.132 -1.132 -1.132 -1.132 -1.132 -1.132 -1.132 -1.132 -1.132 -1.132 -1.132 -1.132 -1.132 -1.132 -1.132 -1.132 -1.132 -1.132 -1.132 -1.132 
-1.132 -1.132 -1.132 -1.132 -1.132 -1.132 -1.132 -1.132 -1.132 -1.132 -1.132 -1.132 -1.132 -1.132 -1.132 -1.132 -1.132 -1.132 -1.132 -1.132 -1.132 
-1.132 -1.132 -1.132 -1.132 -1.132 -1.132 -1.132 -1.132 -1.132 -1.132 -1.132 -1.132 -1.132 -1.132 -1.132 -1.132 -1.132 -1.132 -1.132 -1.132 -1.132 
</DataArray>
<DataArray Name="ne" NumberOfComponents="1" format="ascii" type="Float64">
0.9997 0.9997 0.9997 0.9997 0.9997 0.9997 0.9997 0.9997 0.9997 0.9997 0.9997 0.9997 0.9997 0.9997 0.9997 0.9997 0.9997 0.9997 0.9997 0.9997 0.9997 
0.9997 0.9997 0.9997 0.9997 0.9997 0.9997 0.9997 0.9997 0.9997 0.9997 0.9997 0.9997 0.9997 0.9997 0.9997 0.9997 0.9997 0.9997 0.9997 0.9997 0.9997 
0.9997 0.9997 0.9997 0.9997 0.9997 0.9997 0.9997 0.9997 0.9997 0.9997 0.9997 0.9997 0.9997 0.9997 0.9997 0.9997 0.9997 0.9997 0.9997 0.9997 0.9997 
0.9997 0.9997 0.9997 0.9997 0.9997 0.9997 0.9997 0.9997 0.9997 0.9997 0.9997 0.9997 0.9997 0.9997 0.9997 0.9997 0.9997 0.9997 0.9997 0.9997 0.9997 
0.9997 0.9997 0.9997 0.9997 0.9997 0.9997 0.9997 0.9997 0.9997 0.9997 0.9997 0.9997 0.9997 0.9997 0.9997 0.9997 0.9997 0.9997 0.9997 0.9997 0.9997 
0.9997 0.9997 0.9997 0.9997 0.9997 0.9997 0.9997 0.9997 0.9997 0.9997 0.9997 0.9997 0.9997 0.9997 0.9997 0.9997 0.9997 0.9997 0.9997 0.9997 0.9997 
0.9997 0.9997 0.9997 0.9997 0.9997 0.9997 0.9997 0.9997 0.9997 0.9997 0.9997 0.9997 0.9997 0.9997 0.9997 0.9997 0.9997 0.9997 0.9997 0.9997 0.9997 
0.9997 0.9997 0.9997 0.9997 0.9997 0.9997 0.9997 0.9997 0.9997 0.9997 0.9997 0.9997 0.9997 0.9997 0.9997 0.9997 0.9997 0.9997 0.9997 0.9997 0.9997 
0.9997 0.9997 0.9997 0.9997 0.9997 0.9997 0.9997 0.9997 0.9997 0.9997 0.9997 0.9997 0.9997 0.9997 0.9997 0.9997 0.9997 0.9997 0.9997 0.9997 0.9997 
0.9997 0.9997 0.9997 0.9997 0.9997 0.9997 0.9997 0.9997 0.9997 0.9997 0.9997 0.9997 0.9997 0.9997 0.9997 0.9997 0.9997 0.9997 0.9997 0.9997 0.9997 
0.9997 0.9997 0.9997 0.9997 0.9997 0.9997 0.9997 0.9997 0.9997 0.9997 0.9997 0.9997 0.9997 0.9997 0.9997 0.9997 0.9997 0.9997 0.9997 0.9997 0.9997 
0.9997 0.9997 0.9997 0.9997 0.9997 0.9997 0.9997 0.9997 0.9997 0.9997 0.9997 0.9997 0.9997 0.9997 0.9997 0.9997 0.9997 0.9997 0.9997 0.9997 0.9997 
0.9997 0.9997 0.9997 0.9997 0.9997 0.9997 0.9997 0.9997 0.9997 0.9997 0.9997 0.9997 0.9997 0.9997 0.9997 0.9997 0.9997 0.9997 0.9997 0.9997 0.9997 
0.9997 0.9997 0.9997 0.9997 0.9997 0.9997 0.9997 0.9997 0.9997 0.9997 0.9997 0.9997 0.9997 0.9997 0.9997 0.9997 0.9997 0.9997 0.9997 0.9997 0.9997 
0.9997 0.9997 0.9997 0.9997 0.9997 0.9997 0.9997 0.9997 0.9997 0.9997 0.9997 0.9997 0.9997 0.9997 0.9997 0.9997 0.9997 0.9997 0.9997 0.9997 0.9997 
0.9997 0.9997 0.9997 0.9997 0.9997 0.9997 0.9997 0.9997 0.9997 0.9997 0.9997 0.9997 0.9997 0.9997 0.9997 0.9997 0.9997 0.9997 0.9997 0.9997 0.9997 
0.9997 0.9997 0.9997 0.9997 0.9997 0.9997 0.9997 0.9997 0.9997 0.9997 0.9997 0.9997 0.9997 0.9997 0.9997 0.9997 0.9997 0.9997 0.9997 0.9997 0.9997 
0.9997 0.9997 0.9997 0.9997 0.9997 0.9997 0.9997 0.9997 0.9997 0.9997 0.9997 0.9997 0.9997 0.9997 0.9997 0.9997 0.9997 0.9997 0.9997 0.9997 0.9997 
0.9997 0.9997 0.9997 0.9997 0.9997 0.9997 0.9997 0.9997 0.9997 0.9997 0.9997 0.9997 0.9997 0.9997 0.9997 0.9997 0.9997 0.9997 0.9997 0.9997 0.9997 
0.9997 0.9997 0.9997 0.9997 0.9997 0.9997 0.9997 0.9997 0.9997 0.9997 0.9997 0.9997 0.9997 0.9997 0.9997 0.9997 0.9997 0.9997 0.9997 0.9997 0.9997 
0.9997 0.9997 0.9997 0.9997 0.9997 0.9997 0.9997 0.9997 0.9997 0.9997 0.9997 0.9997 0.9997 0.9997 0.9997 0.9997 0.9997 0.9997 0.9997 0.9997 0.9997 
0.9997 0.9997 0.9997 0.9997 0.9997 0.9997 0.9997 0.9997 0.9997 0.9997 0.9997 0.9997 0.9997 0.9997 0.9997 0.9997 0.9997 0.9997 0.9997 0.9997 0.9997 
0.9997 0.9997 0.9997 0.9997 0.9997 0.9997 0.9997 0.9997 0.9997 0.9997 0.9997 0.9997 0.9997 0.9997 0.9997 0.9997 0.9997 0.9997 0.9997 0.9997 0.9997 
0.9997 0.9997 0.9997 0.9997 0.9997 0.9997 0.9997 0.9997 0.9997 0.9997 0.9997 0.9997 0.9997 0.9997 0.9997 0.9997 0.9997 0.9997 0.9997 0.9997 0.9997 
0.9997 0.9997 0.9997 0.9997 0.9997 0.9997 0.9997 0.9997 0.9997 0.9997 0.9997 0.9997 0.9997 0.9997 0.9997 0.9997 0.9997 0.9997 0.9997 0.9997 0.9997 
0.9997 0.9997 0.9997 0.9997 0.9997 0.9997 0.9997 0.9997 0.9997 0.9997 0.9997 0.9997 0.9997 0.9997 0.9997 0.9997 0.9997 0.9997 0.9997 0.9997 0.9997 
0.9997 0.9997 0.9997 0.9997 0.9997 0.9997 0.9997 0.9997 0.9997 0.9997 0.9997 0.9997 0.9997 0.9997 0.9997 0.9997 0.9997 0.9997 0.9997 0.9997 0.9997 
0.9997 0.9997 0.9997 0.9997 0.9997 0.9997 0.9997 0.9997 0.9997 0.9997 0.9997 0.9997 0.9997 0.9997 0.9997 0.9997 0.9997 0.9997 0.9997 0.9997 0.9997 
0.9997 0.9997 0.9997 0.9997 0.9997 0.9997 0.9997 0.9997 0.9997 0.9997 0.9997 0.9997 0.9997 0.9997 0.9997 0.9997 0.9997 0.9997 0.9997 0.9997 0.9997 
0.9997 0.9997 0.9997 0.9997 0.9997 0.9997 0.9997 0.9997 0.9997 0.9997 0.9997 0.9997 0.9997 0.9997 0.9997 0.9997 0.9997 0.9997 0.9997 0.9997 0.9997 
0.9997 0.9997 0.9997 0.9997 0.9997 0.9997 0.9997 0.9997 0.9997 0.9997 0.9997 0.9997 0.9997 0.9997 0.9997 0.9997 0.9997 0.9997 0.9997 0.9997 0.9997 
0.9997 0.9997 0.9997 0.9997 0.9997 0.9997 0.9997 0.9997 0.9997 0.9997 0.9997 0.9997 0.9997 0.9997 0.9997 0.9997 0.9997 0.9997 0.9997 0.9997 0.9997 
0.9997 0.9997 0.9997 0.9997 0.9997 0.9997 0.9997 0.9997 0.9997 0.9997 0.9997 0.9997 0.9997 0.9997 0.9997 0.9997 0.9997 0.9997 0.9997 0.9997 0.9997 
0.9997 0.9997 0.9997 0.9997 0.9997 0.9997 0.9997 0.9997 0.9997 0.9997 0.9997 0.9997 0.9997 0.9997 0.9997 0.9997 0.9997 0.9997 0.9997 0.9997 0.9997 
0.9997 0.9997 0.9997 0.9997 0.9997 0.9997 0.9997 0.9997 0.9997 0.9997 0.9997 0.9997 0.9997 0.9997 0.9997 0.9997 0.9997 0.9997 0.9997 0.9997 0.9997 
0.9997 0.9997 0.9997 0.9997 0.9997 0.9997 0.9997 0.9997 0.9997 0.9997 0.9997 0.9997 0.9997 0.9997 0.9997 0.9997 0.9997 0.9997 0.9997 0.9997 0.9997 
0.9997 0.9997 0.9997 0.9997 0.9997 0.9997 0.9997 0.9997 0.9997 0.9997 0.9997 0.9997 0.9997 0.9997 0.9997 0.9997 0.9997 0.9997 0.9997 0.9997 0.9997 
0.9997 0.9997 0.9997 0.9997 0.9997 0.9997 0.9997 0.9997 0.9997 0.9997 0.9997 0.9997 0.9997 0.9997 0.9997 0.9997 0.9997 0.9997 0.9997 0.9997 0.9997 
0.9997 0.9997 0.9997 0.9997 0.9997 0.9997 0.9997 0.9997 0.9997 0.9997 0.9997 0.9997 0.9997 0.9997 0.9997 0.9997 0.9997 0.9997 0.9997 0.9997 0.9997 
0.9997 0.9997 0.9997 0.9997 0.9997 0.9997 0.9997 0.9997 0.9997 0.9997 0.9997 0.9997 0.9997 0.9997 0.9997 0.9997 0.9997 0.9997 0.9997 0.9997 0.9997 
0.9997 0.9997 0.9997 0.9997 0.9997 0.9997 0.9997 0.9997 0.9997 0.9997 0.9997 0.9997 0.9997 0.9997 0.9997 0.9997 0.9997 0.9997 0.9997 0.9997 0.9997 
</DataArray>
</PointData>
</Piece>
</ImageData>
</VTKFile>
