<VTKFile type="ImageData">
<ImageData Origin="0 -10 0" Spacing="0.5 0.5 1" WholeExtent="0 20 0 40 0 0">
<Piece Extent="0 20 0 40 0 0">
<PointData>
<DataArray Name="f" NumberOfComponents="1" format="ascii" type="Float64">
2.389e-06 2.389e-06 2.389e-06 2.389e-06 2.389e-06 2.389e-06 2.389e-06 2.389e-06 2.389e-06 2.389e-06 2.389e-06 2.389e-06 2.389e-06 2.389e-06 2.389e-06 2.389e-06 2.389e-06 2.389e-06 2.389e-06 2.389e-06 2.389e-06 
4.756e-06 4.756e-06 4.756e-06 4.756e-06 4.756e-06 4.756e-06 4.756e-06 4.756e-06 4.756e-06 4.756e-06 4.756e-06 4.756e-06 4.756e-06 4.756e-06 4.756e-06 4.756e-06 4.756e-06 4.756e-06 4.756e-06 4.756e-06 4.756e-06 
1.304e-05 1.304e-05 1.304e-05 1.304e-05 1.304e-05 1.304e-05 1.304e-05 1.304e-05 1.304e-05 1.304e-05 1.304e-05 1.304e-05 1.304e-05 1.304e-05 1.304e-05 1.304e-05 1.304e-05 1.304e-05 1.304e-05 1.304e-05 1.304e-05 
3.535e-05 3.535e-05 3.535e-05 3.535e-05 3.535e-05 3.535e-05 3.535e-05 3.535e-05 3.535e-05 3.535e-05 3.535e-05 3.535e-05 3.535e-05 3.535e-05 3.535e-05 3.535e-05 3.535e-05 3.535e-05 3.535e-05 3.535e-05 3.535e-05 
9.101e-05 9.101e-05 9.101e-05 9.101e-05 9.101e-05 9.101e-05 9.101e-05 9.101e-05 9.101e-05 9.101e-05 9.101e-05 9.101e-05 9.101e-05 9.101e-05 9.101e-05 9.101e-05 9.101e-05 9.101e-05 9.101e-05 9.101e-05 9.101e-05 
0.0002217 0.0002217 0.0002217 0.0002217 0.0002217 0.0002217 0.0002217 0.0002217 0.0002217 0.0002217 0.0002217 0.0002217 0.0002217 0.0002217 0.0002217 0.0002217 0.0002217 0.0002217 0.0002217 0.0002217 0.0002217 
0.0005108 0.0005108 0.0005108 0.0005108 0.0005108 0.0005108 0.0005108 0.0005108 0.0005108 0.0005108 0.0005108 0.0005108 0.0005108 0.0005108 0.0005108 0.0005108 0.0005108 0.0005108 0.0005108 0.0005108 0.0005108 
0.001114 0.001114 0.001114 0.001114 0.001114 0.001114 0.001114 0.001114 0.001114 0.001114 0.001114 0.001114 0.001114 0.001114 0.001114 0.001114 0.001114 0.001114 0.001114 0.001114 0.001114 
0.002298 0.002298 0.002298 0.002298 0.002298 0.002298 0.002298 0.002298 0.002298 0.002298 0.002298 0.002298 0.002298 0.002298 0.002298 0.002298 0.002298 0.002298 0.002298 0.002298 0.002298 
0.004487 0.004487 0.004487 0.004487 0.004487 0.004487 0.004487 0.004487 0.004487 0.004487 0.004487 0.004487 0.004487 0.004487 0.004487 0.004487 0.004487 0.004487 0.004487 0.004487 0.004487 
0.008292 0.008292 0.008292 0.008292 0.008292 0.008292 0.008292 0.008292 0.008292 0.008292 0.008292 0.008292 0.008292 0.008292 0.008292 0.008292 0.008292 0.008292 0.008292 0.008292 0.008292 
0.01451 0.01451 0.01451 0.01451 0.01451 0.01451 0.01451 0.01451 0.01451 0.01451 0.01451 0.01451 0.01451 0.01451 0.01451 0.01451 0.01451 0.01451 0.01451 0.01451 0.01451 
0.02402 0.02402 0.02402 0.02402 0.02402 0.02402 0.02402 0.02402 0.02402 0.02402 0.02402 0.02402 0.02402 0.02402 0.02402 0.02402 0.02402 0.02402 0.02402 0.02402 0.02402 
0.03766 0.03766 0.03766 0.03766 0.03766 0.03766 0.03766 0.03766 0.03766 0.03766 0.03766 0.03766 0.03766 0.03766 0.03766 0.03766 0.03766 0.03766 0.03766 0.03766 0.03766 
0.05588 0.05588 0.05588 0.05588 0.05588 0.05588 0.05588 0.05588 0.05588 0.05588 0.05588 0.05588 0.05588 0.05588 0.05588 0.05588 0.05588 0.05588 0.05588 0.05588 0.05588 
0.07847 0.07847 0.07847 0.07847 0.07847 0.07847 0.07847 0.07847 0.07847 0.07847 0.07847 0.07847 0.07847 0.07847 0.07847 0.07847 0.07847 0.07847 0.07847 0.07847 0.07847 
0.1043 0.1043 0.1043 0.1043 0.1043 0.1043 0.1043 0.1043 0.1043 0.1043 0.1043 0.1043 0.1043 0.1043 0.1043 0.1043 0.1043 0.1043 0.1043 0.1043 0.1043 
0.1312 0.1312 0.1312 0.1312 0.1312 0.1312 0.1312 0.1312 0.1312 0.1312 0.1312 0.1312 0.1312 0.1312 0.1312 0.1312 0.1312 0.1312 0.1312 0.1312 0.1312 
0.1561 0.1561 0.1561 0.1561 0.1561 0.1561 0.1561 0.1561 0.1561 0.1561 0.1561 0.1561 0.1561 0.1561 0.1561 0.1561 0.1561 0.1561 0.1561 0.1561 0.1561 
0.1757 0.1757 0.1757 0.1757 0.1757 0.1757 0.1757 0.1757 0.1757 0.1757 0.1757 0.1757 0.1757 0.1757 0.1757 0.1757 0.1757 0.1757 0.1757 0.1757 0.1757 
0.1871 0.1871 0.1871 0.1871 0.1871 0.1871 0.1871 0.1871 0.1871 0.1871 0.1871 0.1871 0.1871 0.1871 0.1871 0.1871 0.1871 0.1871 0.1871 0.1871 0.1871 
0.1884 0.1884 0.1884 0.1884 0.1884 0.1884 0.1884 0.1884 0.1884 0.1884 0.1884 0.1884 0.1884 0.1884 0.1884 0.1884 0.1884 0.1884 0.1884 0.1884 0.1884 
0.1793 0.1793 0.1793 0.1793 0.1793 0.1793 0.1793 0.1793 0.1793 0.1793 0.1793 0.1793 0.1793 0.1793 0.1793 0.1793 0.1793 0.1793 0.1793 0.1793 0.1793 
0.1613 0.1613 0.1613 0.1613 0.1613 0.1613 0.1613 0.1613 0.1613 0.1613 0.1613 0.1613 0.1613 0.1613 0.1613 0.1613 0.1613 0.1613 0.1613 0.1613 0.1613 
0.1371 0.1371 0.1371 0.1371 0.1371 0.1371 0.1371 0.1371 0.1371 0.1371 0.1371 0.1371 0.1371 0.1371 0.1371 0.1371 0.1371 0.1371 0.1371 0.1371 0.1371 
0.1101 0.1101 0.1101 0.1101 0.1101 0.1101 0.1101 0.1101 0.1101 0.1101 0.1101 0.1101 0.1101 0.1101 0.1101 0.1101 0.1101 0.1101 0.1101 0.1101 0.1101 
0.08342 0.08342 0.08342 0.08342 0.08342 0.08342 0.08342 0.08342 0.08342 0.08342 0.08342 0.08342 0.08342 0.08342 0.08342 0.08342 0.08342 0.08342 0.08342 0.08342 0.08342 
0.05967 0.05967 0.05967 0.05967 0.05967 0.05967 0.05967 0.05967 0.05967 0.05967 0.05967 0.05967 0.05967 0.05967 0.05967 0.05967 0.05967 0.05967 0.05967 0.05967 0.05967 
0.04027 0.04027 0.04027 0.04027 0.04027 0.04027 0.04027 0.04027 0.04027 0.04027 0.04027 0.04027 0.04027 0.04027 0.04027 0.04027 0.04027 0.04027 0.04027 0.04027 0.04027 
0.02562 0.02562 0.02562 0.02562 0.02562 0.02562 0.02562 0.02562 0.02562 0.02562 0.02562 0.02562 0.02562 0.02562 0.02562 0.02562 0.02562 0.02562 0.02562 0.02562 0.02562 
0.01537 0.01537 0.01537 0.01537 0.01537 0.01537 0.01537 0.01537 0.01537 0.01537 0.01537 0.01537 0.01537 0.01537 0.01537 0.01537 0.01537 0.01537 0.01537 0.01537 0.01537 
0.00868 0.00868 0.00868 0.00868 0.00868 0.00868 0.00868 0.00868 0.00868 0.00868 0.00868 0.00868 0.00868 0.00868 0.00868 0.00868 0.00868 0.00868 0.00868 0.00868 0.00868 
0.004616 0.004615 0.004615 0.004615 0.004615 0.004615 0.004616 0.004616 0.004616 0.004616 0.004616 0.004616 0.004616 0.004616 0.004616 0.004616 0.004616 0.004616 0.004616 0.004616 0.004616 
0.002309 0.002309 0.002309 0.002309 0.002309 0.002309 0.002309 0.002309 0.002309 0.002309 0.002309 0.002309 0.002309 0.002309 0.002309 0.002309 0.002309 0.002309 0.002309 0.002309 0.002309 
0.001086 0.001086 0.001086 0.001086 0.001086 0.001086 0.001086 0.001086 0.001086 0.001086 0.001086 0.001086 0.001086 0.001086 0.001086 0.001086 0.001086 0.001086 0.001086 0.001086 0.001086 
0.0004797 0.0004797 0.0004797 0.0004797 0.0004797 0.0004797 0.0004797 0.0004797 0.0004797 0.0004797 0.0004797 0.0004797 0.0004797 0.0004797 0.0004797 0.0004797 0.0004797 0.0004797 0.0004797 0.0004797 0.0004797 
0.0001989 0.0001989 0.0001989 0.0001989 0.0001989 0.0001989 0.0001989 0.0001989 0.0001989 0.0001989 0.0001989 0.0001989 0.0001989 0.0001989 0.0001989 0.0001989 0.0001989 0.0001989 0.0001989 0.0001989 0.0001989 
7.736e-05 7.736e-05 7.736e-05 7.736e-05 7.736e-05 7.736e-05 7.736e-05 7.736e-05 7.736e-05 7.736e-05 7.736e-05 7.735e-05 7.735e-05 7.735e-05 7.735e-05 7.735e-05 7.735e-05 7.735e-05 7.735e-05 7.735e-05 7.736e-05 
2.822e-05 2.822e-05 2.822e-05 2.822e-05 2.822e-05 2.822e-05 2.822e-05 2.822e-05 2.822e-05 2.822e-05 2.822e-05 2.822e-05 2.822e-05 2.822e-05 2.822e-05 2.822e-05 2.822e-05 2.822e-05 2.822e-05 2.822e-05 2.822e-05 
9.743e-06 9.744e-06 9.744e-06 9.744e-06 9.744e-06 9.744e-06 9.744e-06 9.744e-06 9.744e-06 9.744e-06 9.744e-06 9.744e-06 9.744e-06 9.744e-06 9.744e-06 9.744e-06 9.744e-06 9.744e-06 9.744e-06 9.744e-06 9.743e-06 
3.521e-06 3.521e-06 3.521e-06 3.521e-06 3.521e-06 3.521e-06 3.521e-06 3.521e-06 3.521e-06 3.521e-06 3.521e-06 3.522e-06 3.522e-06 3.522e-06 3.522e-06 3.522e-06 3.521e-06 3.521e-06 3.521e-06 3.521e-06 3.521e-06 
</DataArray>
<DataArray Name="E" NumberOfComponents="1" format="ascii" type="Float64">
-1.453 -1.453 -1.453 -1.453 -1.453 -1.453 -1.453 -1.453 -1.453 -1.453 -1.453 -1.453 -1.453 -1.453 -1.453 -1.453 -1.453 -1.453 -1.453 -1.453 -1.453 
-1.453 -1.453 -1.453 -1.453 -1.453 -1.453 -1.453 -1.453 -1.453 -1.453 -1.453 -1.453 -1.453 -1.453 -1.453 -1.453 -1.453 -1.453 -1.453 -1.453 -1.453 
-1.453 -1.453 -1.453 -1.453 -1.453 -1.453 -1.453 -1.453 -1.453 -1.453 -1.453 -1.453 -1.453 -1.453 -1.453 -1.453 -1.453 -1.453 -1.453 -1.453 -1.453 
-1.453 -1.453 -1.453 -1.453 -1.453 -1.453 -1.453 -1.453 -1.453 -1.453 -1.453 -1.453 -1.453 -1.453 -1.453 -1.453 -1.453 -1.453 -1.453 -1.453 -1.453 
-1.453 -1.453 -1.453 -1.453 -1.453 -1.453 -1.453 -1.453 -1.453 -1.453 -1.453 -1.453 -1.453 -1.453 -1.453 -1.453 -1.453 -1.453 -1.453 -1.453 -1.453 
-1.453 -1.453 -1.453 -1.453 -1.453 -1.453 -1.453 -1.453 -1.453 -1.453 -1.453 -1.453 -1.453 -1.453 -1.453 -1.453 -1.453 -1.453 -1.453 -1.453 -1.453 
-1.453 -1.453 -1.453 -1.453 -1.453 -1.453 -1.453 -1.453 -1.453 -1.453 -1.453 -1.453 -1.453 -1.453 -1.453 -1.453 -1.453 -1.453 -1.453 -1.453 -1.453 
-1.453 -1.453 -1.453 -1.453 -1.453 -1.453 -1.453 -1.453 -1.453 -1.453 -1.453 -1.453 -1.453 -1.453 -1.453 -1.453 -1.453 -1.453 -1.453 -1.453 -1.453 
-1.453 -1.453 -1.453 -1.453 -1.453 -1.453 -1.453 -1.453 -1.453 -1.453 -1.453 -1.453 -1.453 -1.453 -1.453 -1.453 -1.453 -1.453 -1.453 -1.453 -1.453 
-1.453 -1.453 -1.453 -1.453 -1.453 -1.453 -1.453 -1.453 -1.453 -1.453 -1.453 -1.453 -1.453 -1.453 -1.453 -1.453 -1.453 -1.453 -1.453 -1.453 -1.453 
-1.453 -1.453 -1.453 -1.453 -1.453 -1.453 -1.453 -1.453 -1.453 -1.453 -1.453 -1.453 -1.453 -1.453 -1.453 -1.453 -1.453 -1.453 -1.453 -1.453 -1.453 
-1.453 -1.453 -1.453 -1.453 -1.453 -1.453 -1.453 -1.453 -1.453 -1.453 -1.453 -1.453 -1.453 -1.453 -1.453 -1.453 -1.453 -1.453 -1.453 -1.453 -1.453 
-1.453 -1.453 -1.453 -1.453 -1.453 -1.453 -1.453 -1.453 -1.453 -1.453 -1.453 -1.453 -1.453 -1.453 -1.453 -1.453 -1.453 -1.453 -1.453 -1.453 -1.453 
-1.453 -1.453 -1.453 -1.453 -1.453 -1.453 -1.453 -1.453 -1.453 -1.453 -1.453 -1.453 -1.453 -1.453 -1.453 -1.453 -1.453 -1.453 -1.453 -1.453 -1.453 
-1.453 -1.453 -1.453 -1.453 -1.453 -1.453 -1.453 -1.453 -1.453 -1.453 -1.453 -1.453 -1.453 -1.453 -1.453 -1.453 -1.453 -1.453 -1.453 -1.453 -1.453 
-1.453 -1.453 -1.453 -1.453 -1.453 -1.453 -1.453 -1.453 -1.453 -1.453 -1.453 -1.453 -1.453 -1.453 -1.453 -1.453 -1.453 -1.453 -1.453 -1.453 -1.453 
-1.453 -1.453 -1.453 -1.453 -1.453 -1.453 -1.453 -1.453 -1.453 -1.453 -1.453 -1.453 -1.453 -1.453 -1.453 -1.453 -1.453 -1.453 -1.453 -1.453 -1.453 
-1.453 -1.453 -1.453 -1.453 -1.453 -1.453 -1.453 -1.453 -1.453 -1.453 -1.453 -1.453 -1.453 -1.453 -1.453 -1.453 -1.453 -1.453 -1.453 -1.453 -1.453 
-1.453 -1.453 -1.453 -1.453 -1.453 -1.453 -1.453 -1.453 -1.453 -1.453 -1.453 -1.453 -1.453 -1.453 -1.453 -1.453 -1.453 -1.453 -1.453 -1.453 -1.453 
-1.453 -1.453 -1.453 -1.453 -1.453 -1.453 -1.453 -1.453 -1.453 -1.453 -1.453 -1.453 -1.453 -1.453 -1.453 -1.453 -1.453 -1.453 -1.453 -1.453 -1.453 
-1.453 -1.453 -1.453 -1.453 -1.453 -1.453 -1.453 -1.453 -1.453 -1.453 -1.453 -1.453 -1.453 -1.453 -1.453 -1.453 -1.453 -1.453 -1.453 -1.453 -1.453 
-1.453 -1.453 -1.453 -1.453 -1.453 -1.453 -1.453 -1.453 -1.453 -1.453 -1.453 -1.453 -1.453 -1.453 -1.453 -1.453 -1.453 -1.453 -1.453 -1.453 -1.453 
-1.453 -1.453 -1.453 -1.453 -1.453 -1.453 -1.453 -1.453 -1.453 -1.453 -1.453 -1.453 -1.453 -1.453 -1.453 -1.453 -1.453 -1.453 -1.453 -1.453 -1.453 
-1.453 -1.453 -1.453 -1.453 -1.453 -1.453 -1.453 -1.453 -1.453 -1.453 -1.453 -1.453 -1.453 -1.453 -1.453 -1.453 -1.453 -1.453 -1.453 -1.453 -1.453 
-1.453 -1.453 -1.453 -1.453 -1.453 -1.453 -1.453 -1.453 -1.453 -1.453 -1.453 -1.453 -1.453 -1.453 -1.453 -1.453 -1.453 -1.453 -1.453 -1.453 -1.453 
-1.453 -1.453 -1.453 -1.453 -1.453 -1.453 -1.453 -1.453 -1.453 -1.453 -1.453 -1.453 -1.453 -1.453 -1.453 -1.453 -1.453 -1.453 -1.453 -1.453 -1.453 
-1.453 -1.453 -1.453 -1.453 -1.453 -1.453 -1.453 -1.453 -1.453 -1.453 -1.453 -1.453 -1.453 -1.453 -1.453 -1.453 -1.453 -1.453 -1.453 -1.453 -1.453 
-1.453 -1.453 -1.453 -1.453 -1.453 -1.453 -1.453 -1.453 -1.453 -1.453 -1.453 -1.453 -1.453 -1.453 -1.453 -1.453 -1.453 -1.453 -1.453 -1.453 -1.453 
-1.453 -1.453 -1.453 -1.453 -1.453 -1.453 -1.453 -1.453 -1.453 -1.453 -1.453 -1.453 -1.453 -1.453 -1.453 -1.453 -1.453 -1.453 -1.453 -1.453 -1.453 
-1.453 -1.453 -1.453 -1.453 -1.453 -1.453 -1.453 -1.453 -1.453 -1.453 -1.453 -1.453 -1.453 -1.453 -1.453 -1.453 -1.453 -1.453 -1.453 -1.453 -1.453 
-1.453 -1.453 -1.453 -1.453 -1.453 -1.453 -1.453 -1.453 -1.453 -1.453 -1.453 -1.453 -1.453 -1.453 -1.453 -1.453 -1.453 -1.453 -1.453 -1.453 -1.453 
-1.453 -1.453 -1.453 -1.453 -1.453 -1.453 -1.453 -1.453 -1.453 -1.453 -1.453 -1.453 -1.453 -1.453 -1.453 -1.453 -1.453 -1.453 -1.453 -1.453 -1.453 
-1.453 -1.453 -1.453 -1.453 -1.453 -1.453 -1.453 -1.453 -1.453 -1.453 -1.453 -1.453 -1.453 -1.453 -1.453 -1.453 -1.453 -1.453 -1.453 -1.453 -1.453 
-1.453 -1.453 -1.453 -1.453 -1.453 -1.453 -1.453 -1.453 -1.453 -1.453 -1.453 -1.453 -1.453 -1.453 -1.453 -1.453 -1.453 -1.453 -1.453 -1.453 -1.453 
-1.453 -1.453 -1.453 -1.453 -1.453 -1.453 -1.453 -1.453 -1.453 -1.453 -1.453 -1.453 -1.453 -1.453 -1.453 -1.453 -1.453 -1.453 -1.453 -1.453 -1.453 
-1.453 -1.453 -1.453 -1.453 -1.453 -1.453 -1.453 -1.453 -1.453 -1.453 -1.453 -1.453 -1.453 -1.453 -1.453 -1.453 -1.453 -1.453 -1.453 -1.453 -1.453 
-1.453 -1.453 -1.453 -1.453 -1.453 -1.453 -1.453 -1.453 -1.453 -1.453 -1.453 -1.453 -1.453 -1.453 -1.453 -1.453 -1.453 -1.453 -1.453 -1.453 -1.453 
-1.453 -1.453 -1.453 -1.453 -1.453 -1.453 -1.453 -1.453 -1.453 -1.453 -1.453 -1.453 -1.453 -1.453 -1.453 -1.453 -1.453 -1.453 -1.453 -1.453 -1.453 
-1.453 -1.453 -1.453 -1.453 -1.453 -1.453 -1.453 -1.453 -1.453 -1.453 -1.453 -1.453 -1.453 -1.453 -1.453 -1.453 -1.453 -1.453 -1.453 -1.453 -1.453 
-1.453 -1.453 -1.453 -1.453 -1.453 -1.453 -1.453 -1.453 -1.453 -1.453 -1.453 -1.453 -1.453 -1.453 -1.453 -1.453 -1.453 -1.453 -1.453 -1.453 -1.453 
-1.453 -1.453 -1.453 -1.453 -1.453 -1.453 -1.453 -1.453 -1.453 -1.453 -1.453 -1.453 -1.453 -1.453 -1.453 -1.453 -1.453 -1.453 -1.453 -1.453 -1.453 
</DataArray>
<DataArray Name="ne" NumberOfComponents="1" format="ascii" type="Float64">
1 1 1 1 1 1 1 1 1 1 1 1 1 1 1 1 1 1 1 1 1 
1 1 1 1 1 1 1 1 1 1 1 1 1 1 1 1 1 1 1 1 1 
1 1 1 1 1 1 1 1 1 1 1 1 1 1 1 1 1 1 1 1 1 
1 1 1 1 1 1 1 1 1 1 1 1 1 1 1 1 1 1 1 1 1 
1 1 1 1 1 1 1 1 1 1 1 1 1 1 1 1 1 1 1 1 1 
1 1 1 1 1 1 1 1 1 1 1 1 1 1 1 1 1 1 1 1 1 
1 1 1 1 1 1 1 1 1 1 1 1 1 1 1 1 1 1 1 1 1 
1 1 1 1 1 1 1 1 1 1 1 1 1 1 1 1 1 1 1 1 1 
1 1 1 1 1 1 1 1 1 1 1 1 1 1 1 1 1 1 1 1 1 
1 1 1 1 1 1 1 1 1 1 1 1 1 1 1 1 1 1 1 1 1 
1 1 1 1 1 1 1 1 1 1 1 1 1 1 1 1 1 1 1 1 1 
1 1 1 1 1 1 1 1 1 1 1 1 1 1 1 1 1 1 1 1 1 
1 1 1 1 1 1 1 1 1 1 1 1 1 1 1 1 1 1 1 1 1 
1 1 1 1 1 1 1 1 1 1 1 1 1 1 1 1 1 1 1 1 1 
1 1 1 1 1 1 1 1 1 1 1 1 1 1 1 1 1 1 1 1 1 
1 1 1 1 1 1 1 1 1 1 1 1 1 1 1 1 1 1 1 1 1 
1 1 1 1 1 1 1 1 1 1 1 1 1 1 1 1 1 1 1 1 1 
1 1 1 1 1 1 1 1 1 1 1 1 1 1 1 1 1 1 1 1 1 
1 1 1 1 1 1 1 1 1 1 1 1 1 1 1 1 1 1 1 1 1 
1 1 1 1 1 1 1 1 1 1 1 1 1 1 1 1 1 1 1 1 1 
1 1 1 1 1 1 1 1 1 1 1 1 1 1 1 1 1 1 1 1 1 
1 1 1 1 1 1 1 1 1 1 1 1 1 1 1 1 1 1 1 1 1 
1 1 1 1 1 1 1 1 1 1 1 1 1 1 1 1 1 1 1 1 1 
1 1 1 1 1 1 1 1 1 1 1 1 1 1 1 1 1 1 1 1 1 
1 1 1 1 1 1 1 1 1 1 1 1 1 1 1 1 1 1 1 1 1 
1 1 1 1 1 1 1 1 1 1 1 1 1 1 1 1 1 1 1 1 1 
1 1 1 1 1 1 1 1 1 1 1 1 1 1 1 1 1 1 1 1 1 
1 1 1 1 1 1 1 1 1 1 1 1 1 1 1 1 1 1 1 1 1 
1 1 1 1 1 1 1 1 1 1 1 1 1 1 1 1 1 1 1 1 1 
1 1 1 1 1 1 1 1 1 1 1 1 1 1 1 1 1 1 1 1 1 
1 1 1 1 1 1 1 1 1 1 1 1 1 1 1 1 1 1 1 1 1 
1 1 1 1 1 1 1 1 1 1 1 1 1 1 1 1 1 1 1 1 1 
1 1 1 1 1 1 1 1 1 1 1 1 1 1 1 1 1 1 1 1 1 
1 1 1 1 1 1 1 1 1 1 1 1 1 1 1 1 1 1 1 1 1 
1 1 1 1 1 1 1 1 1 1 1 1 1 1 1 1 1 1 1 1 1 
1 1 1 1 1 1 1 1 1 1 1 1 1 1 1 1 1 1 1 1 1 
1 1 1 1 1 1 1 1 1 1 1 1 1 1 1 1 1 1 1 1 1 
1 1 1 1 1 1 1 1 1 1 1 1 1 1 1 1 1 1 1 1 1 
1 1 1 1 1 1 1 1 1 1 1 1 1 1 1 1 1 1 1 1 1 
1 1 1 1 1 1 1 1 1 1 1 1 1 1 1 1 1 1 1 1 1 
1 1 1 1 1 1 1 1 1 1 1 1 1 1 1 1 1 1 1 1 1 
</DataArray>
</PointData>
</Piece>
</ImageData>
</VTKFile>
