<VTKFile type="ImageData">
<ImageData Origin="0 -10 0" Spacing="0.5 0.5 1" WholeExtent="0 20 0 40 0 0">
<Piece Extent="0 20 0 40 0 0">
<PointData>
<DataArray Name="f" NumberOfComponents="1" format="ascii" type="Float64">
2.047e-06 2.047e-06 2.047e-06 2.047e-06 2.047e-06 2.047e-06 2.047e-06 2.047e-06 2.047e-06 2.047e-06 2.047e-06 2.047e-06 2.047e-06 2.047e-06 2.047e-06 2.047e-06 2.047e-06 2.047e-06 2.047e-06 2.047e-06 2.047e-06 
9.437e-06 9.437e-06 9.437e-06 9.437e-06 9.437e-06 9.437e-06 9.437e-06 9.437e-06 9.437e-06 9.437e-06 9.437e-06 9.437e-06 9.437e-06 9.437e-06 9.437e-06 9.437e-06 9.437e-06 9.437e-06 9.437e-06 9.437e-06 9.437e-06 
3.913e-05 3.913e-05 3.913e-05 3.913e-05 3.913e-05 3.913e-05 3.913e-05 3.913e-05 3.913e-05 3.913e-05 3.913e-05 3.913e-05 3.913e-05 3.913e-05 3.913e-05 3.913e-05 3.913e-05 3.913e-05 3.913e-05 3.913e-05 3.913e-05 
0.0001461 0.0001461 0.0001461 0.0001461 0.0001461 0.0001461 0.0001461 0.0001461 0.0001461 0.0001461 0.0001461 0.0001461 0.0001461 0.0001461 0.0001461 0.0001461 0.0001461 0.0001461 0.0001461 0.0001461 0.0001461 
0.0004915 0.0004915 0.0004915 0.0004915 0.0004915 0.0004915 0.0004915 0.0004915 0.0004915 0.0004915 0.0004915 0.0004915 0.0004915 0.0004915 0.0004915 0.0004915 0.0004915 0.0004915 0.0004915 0.0004915 0.0004915 
0.001491 0.001491 0.001491 0.001491 0.001491 0.001491 0.001491 0.001491 0.001491 0.001491 0.001491 0.001491 0.001491 0.001491 0.001491 0.001491 0.001491 0.001491 0.001491 0.001491 0.001491 
0.004076 0.004076 0.004076 0.004076 0.004076 0.004076 0.004076 0.004076 0.004076 0.004076 0.004076 0.004076 0.004076 0.004076 0.004076 0.004076 0.004076 0.004076 0.004076 0.004076 0.004076 
0.01004 0.01004 0.01004 0.01004 0.01004 0.01004 0.01004 0.01004 0.01004 0.01004 0.01004 0.01004 0.01004 0.01004 0.01004 0.01004 0.01004 0.01004 0.01004 0.01004 0.01004 
0.02229 0.02229 0.02229 0.02229 0.02229 0.02229 0.02229 0.02229 0.02229 0.02229 0.02229 0.02229 0.02229 0.02229 0.02229 0.02229 0.02229 0.02229 0.02229 0.02229 0.02229 
0.04452 0.04452 0.04452 0.04452 0.04452 0.04452 0.04452 0.04452 0.04452 0.04452 0.04452 0.04452 0.04452 0.04452 0.04452 0.04452 0.04452 0.04452 0.04452 0.04452 0.04452 
0.07988 0.07988 0.07988 0.07988 0.07988 0.07988 0.07988 0.07988 0.07988 0.07988 0.07988 0.07988 0.07988 0.07988 0.07988 0.07988 0.07988 0.07988 0.07988 0.07988 0.07988 
0.1286 0.1286 0.1286 0.1286 0.1286 0.1286 0.1286 0.1286 0.1286 0.1286 0.1286 0.1286 0.1286 0.1286 0.1286 0.1286 0.1286 0.1286 0.1286 0.1286 0.1286 
0.1852 0.1852 0.1852 0.1852 0.1852 0.1852 0.1852 0.1852 0.1852 0.1852 0.1852 0.1852 0.1852 0.1852 0.1852 0.1852 0.1852 0.1852 0.1852 0.1852 0.1852 
0.2382 0.2382 0.2382 0.2382 0.2382 0.2382 0.2382 0.2382 0.2382 0.2382 0.2382 0.2382 0.2382 0.2382 0.2382 0.2382 0.2382 0.2382 0.2382 0.2382 0.2382 
0.2728 0.2728 0.2728 0.2728 0.2728 0.2728 0.2728 0.2728 0.2728 0.2728 0.2728 0.2728 0.2728 0.2728 0.2728 0.2728 0.2728 0.2728 0.2728 0.2728 0.2728 
0.2771 0.2771 0.2771 0.2771 0.2771 0.2771 0.2771 0.2771 0.2771 0.2771 0.2771 0.2771 0.2771 0.2771 0.2771 0.2771 0.2771 0.2771 0.2771 0.2771 0.2771 
0.2488 0.2488 0.2488 0.2488 0.2488 0.2488 0.2488 0.2488 0.2488 0.2488 0.2488 0.2488 0.2488 0.2488 0.2488 0.2488 0.2488 0.2488 0.2488 0.2488 0.2488 
0.1965 0.1965 0.1965 0.1965 0.1965 0.1965 0.1965 0.1965 0.1965 0.1965 0.1965 0.1965 0.1965 0.1965 0.1965 0.1965 0.1965 0.1965 0.1965 0.1965 0.1965 
0.1359 0.1359 0.1359 0.1359 0.1359 0.1359 0.1359 0.1359 0.1359 0.1359 0.1359 0.1359 0.1359 0.1359 0.1359 0.1359 0.1359 0.1359 0.1359 0.1359 0.1359 
0.08178 0.08178 0.08178 0.08178 0.08178 0.08178 0.08178 0.08178 0.08178 0.08178 0.08178 0.08178 0.08178 0.08178 0.08178 0.08178 0.08178 0.08178 0.08178 0.08178 0.08178 
0.0426 0.0426 0.0426 0.0426 0.0426 0.0426 0.0426 0.0426 0.0426 0.0426 0.0426 0.0426 0.0426 0.0426 0.0426 0.0426 0.0426 0.0426 0.0426 0.0426 0.0426 
0.01908 0.01908 0.01908 0.01908 0.01908 0.01908 0.01908 0.01908 0.01908 0.01908 0.01908 0.01908 0.01908 0.01908 0.01908 0.01908 0.01908 0.01908 0.01908 0.01908 0.01908 
0.007291 0.007291 0.007291 0.007291 0.007291 0.007291 0.007291 0.007291 0.007291 0.007291 0.007291 0.007291 0.007291 0.007291 0.007291 0.007291 0.007291 0.007291 0.007291 0.007291 0.007291 
0.00236 0.00236 0.00236 0.00236 0.00236 0.00236 0.00236 0.00236 0.00236 0.00236 0.00236 0.00236 0.00236 0.00236 0.00236 0.00236 0.00236 0.00236 0.00236 0.00236 0.00236 
0.0006422 0.0006422 0.0006422 0.0006422 0.0006422 0.0006422 0.0006422 0.0006422 0.0006422 0.0006422 0.0006422 0.0006422 0.0006422 0.0006422 0.0006422 0.0006422 0.0006422 0.0006422 0.0006422 0.0006422 0.0006422 
0.0001457 0.0001457 0.0001457 0.0001457 0.0001457 0.0001457 0.0001457 0.0001457 0.0001457 0.0001457 0.0001457 0.0001457 0.0001457 0.0001457 0.0001457 0.0001457 0.0001457 0.0001457 0.0001457 0.0001457 0.0001457 
2.734e-05 2.734e-05 2.734e-05 2.734e-05 2.734e-05 2.734e-05 2.734e-05 2.734e-05 2.734e-05 2.734e-05 2.734e-05 2.734e-05 2.734e-05 2.734e-05 2.734e-05 2.734e-05 2.734e-05 2.734e-05 2.734e-05 2.734e-05 2.734e-05 
4.209e-06 4.209e-06 4.209e-06 4.209e-06 4.209e-06 4.209e-06 4.209e-06 4.209e-06 4.209e-06 4.209e-06 4.209e-06 4.209e-06 4.209e-06 4.209e-06 4.209e-06 4.209e-06 4.209e-06 4.209e-06 4.209e-06 4.209e-06 4.209e-06 
5.279e-07 5.279e-07 5.279e-07 5.279e-07 5.279e-07 5.279e-07 5.279e-07 5.279e-07 5.279e-07 5.279e-07 5.279e-07 5.279e-07 5.279e-07 5.279e-07 5.279e-07 5.279e-07 5.279e-07 5.279e-07 5.279e-07 5.279e-07 5.279e-07 
5.355e-08 5.355e-08 5.355e-08 5.355e-08 5.355e-08 5.355e-08 5.355e-08 5.355e-08 5.355e-08 5.355e-08 5.355e-08 5.355e-08 5.355e-08 5.355e-08 5.355e-08 5.355e-08 5.355e-08 5.355e-08 5.355e-08 5.355e-08 5.355e-08 
4.368e-09 4.368e-09 4.368e-09 4.368e-09 4.368e-09 4.368e-09 4.368e-09 4.368e-09 4.368e-09 4.368e-09 4.368e-09 4.368e-09 4.368e-09 4.368e-09 4.368e-09 4.368e-09 4.368e-09 4.368e-09 4.368e-09 4.368e-09 4.368e-09 
2.848e-10 2.848e-10 2.848e-10 2.848e-10 2.848e-10 2.848e-10 2.848e-10 2.848e-10 2.848e-10 2.848e-10 2.848e-10 2.848e-10 2.848e-10 2.848e-10 2.848e-10 2.848e-10 2.848e-10 2.848e-10 2.848e-10 2.848e-10 2.848e-10 
1.479e-11 1.479e-11 1.479e-11 1.479e-11 1.479e-11 1.479e-11 1.479e-11 1.479e-11 1.479e-11 1.479e-11 1.479e-11 1.479e-11 1.479e-11 1.479e-11 1.479e-11 1.479e-11 1.479e-11 1.479e-11 1.479e-11 1.479e-11 1.479e-11 
7.794e-13 7.794e-13 7.794e-13 7.794e-13 7.794e-13 7.794e-13 7.794e-13 7.794e-13 7.794e-13 7.794e-13 7.794e-13 7.794e-13 7.794e-13 7.794e-13 7.794e-13 7.794e-13 7.794e-13 7.794e-13 7.794e-13 7.794e-13 7.794e-13 
2.035e-12 2.035e-12 2.035e-12 2.035e-12 2.035e-12 2.035e-12 2.035e-12 2.035e-12 2.035e-12 2.035e-12 2.035e-12 2.035e-12 2.035e-12 2.035e-12 2.035e-12 2.035e-12 2.035e-12 2.035e-12 2.035e-12 2.035e-12 2.035e-12 
2.075e-11 2.075e-11 2.075e-11 2.075e-11 2.075e-11 2.075e-11 2.075e-11 2.075e-11 2.075e-11 2.075e-11 2.075e-11 2.075e-11 2.075e-11 2.075e-11 2.075e-11 2.075e-11 2.075e-11 2.075e-11 2.075e-11 2.075e-11 2.075e-11 
1.886e-10 1.886e-10 1.886e-10 1.886e-10 1.886e-10 1.886e-10 1.886e-10 1.886e-10 1.886e-10 1.886e-10 1.886e-10 1.886e-10 1.886e-10 1.886e-10 1.886e-10 1.886e-10 1.886e-10 1.886e-10 1.886e-10 1.886e-10 1.886e-10 
1.52e-09 1.52e-09 1.52e-09 1.52e-09 1.52e-09 1.52e-09 1.52e-09 1.52e-09 1.52e-09 1.52e-09 1.52e-09 1.52e-09 1.52e-09 1.52e-09 1.52e-09 1.52e-09 1.52e-09 1.52e-09 1.52e-09 1.52e-09 1.52e-09 
1.09e-08 1.09e-08 1.09e-08 1.09e-08 1.09e-08 1.09e-08 1.09e-08 1.09e-08 1.09e-08 1.09e-08 1.09e-08 1.09e-08 1.09e-08 1.09e-08 1.09e-08 1.09e-08 1.09e-08 1.09e-08 1.09e-08 1.09e-08 1.09e-08 
6.971e-08 6.971e-08 6.971e-08 6.971e-08 6.971e-08 6.971e-08 6.971e-08 6.971e-08 6.971e-08 6.971e-08 6.971e-08 6.971e-08 6.971e-08 6.971e-08 6.971e-08 6.971e-08 6.971e-08 6.971e-08 6.971e-08 6.971e-08 6.971e-08 
3.99e-07 3.99e-07 3.99e-07 3.99e-07 3.99e-07 3.99e-07 3.99e-07 3.99e-07 3.99e-07 3.99e-07 3.99e-07 3.99e-07 3.99e-07 3.99e-07 3.99e-07 3.99e-07 3.99e-07 3.99e-07 3.99e-07 3.99e-07 3.99e-07 
</DataArray>
<DataArray Name="E" NumberOfComponents="1" format="ascii" type="Float64">
1 1 1 1 1 1 1 1 1 1 1 1 1 1 1 1 1 1 1 1 1 
1 1 1 1 1 1 1 1 1 1 1 1 1 1 1 1 1 1 1 1 1 
1 1 1 1 1 1 1 1 1 1 1 1 1 1 1 1 1 1 1 1 1 
1 1 1 1 1 1 1 1 1 1 1 1 1 1 1 1 1 1 1 1 1 
1 1 1 1 1 1 1 1 1 1 1 1 1 1 1 1 1 1 1 1 1 
1 1 1 1 1 1 1 1 1 1 1 1 1 1 1 1 1 1 1 1 1 
1 1 1 1 1 1 1 1 1 1 1 1 1 1 1 1 1 1 1 1 1 
1 1 1 1 1 1 1 1 1 1 1 1 1 1 1 1 1 1 1 1 1 
1 1 1 1 1 1 1 1 1 1 1 1 1 1 1 1 1 1 1 1 1 
1 1 1 1 1 1 1 1 1 1 1 1 1 1 1 1 1 1 1 1 1 
1 1 1 1 1 1 1 1 1 1 1 1 1 1 1 1 1 1 1 1 1 
1 1 1 1 1 1 1 1 1 1 1 1 1 1 1 1 1 1 1 1 1 
1 1 1 1 1 1 1 1 1 1 1 1 1 1 1 1 1 1 1 1 1 
1 1 1 1 1 1 1 1 1 1 1 1 1 1 1 1 1 1 1 1 1 
1 1 1 1 1 1 1 1 1 1 1 1 1 1 1 1 1 1 1 1 1 
1 1 1 1 1 1 1 1 1 1 1 1 1 1 1 1 1 1 1 1 1 
1 1 1 1 1 1 1 1 1 1 1 1 1 1 1 1 1 1 1 1 1 
1 1 1 1 1 1 1 1 1 1 1 1 1 1 1 1 1 1 1 1 1 
1 1 1 1 1 1 1 1 1 1 1 1 1 1 1 1 1 1 1 1 1 
1 1 1 1 1 1 1 1 1 1 1 1 1 1 1 1 1 1 1 1 1 
1 1 1 1 1 1 1 1 1 1 1 1 1 1 1 1 1 1 1 1 1 
1 1 1 1 1 1 1 1 1 1 1 1 1 1 1 1 1 1 1 1 1 
1 1 1 1 1 1 1 1 1 1 1 1 1 1 1 1 1 1 1 1 1 
1 1 1 1 1 1 1 1 1 1 1 1 1 1 1 1 1 1 1 1 1 
1 1 1 1 1 1 1 1 1 1 1 1 1 1 1 1 1 1 1 1 1 
1 1 1 1 1 1 1 1 1 1 1 1 1 1 1 1 1 1 1 1 1 
1 1 1 1 1 1 1 1 1 1 1 1 1 1 1 1 1 1 1 1 1 
1 1 1 1 1 1 1 1 1 1 1 1 1 1 1 1 1 1 1 1 1 
1 1 1 1 1 1 1 1 1 1 1 1 1 1 1 1 1 1 1 1 1 
1 1 1 1 1 1 1 1 1 1 1 1 1 1 1 1 1 1 1 1 1 
1 1 1 1 1 1 1 1 1 1 1 1 1 1 1 1 1 1 1 1 1 
1 1 1 1 1 1 1 1 1 1 1 1 1 1 1 1 1 1 1 1 1 
1 1 1 1 1 1 1 1 1 1 1 1 1 1 1 1 1 1 1 1 1 
1 1 1 1 1 1 1 1 1 1 1 1 1 1 1 1 1 1 1 1 1 
1 1 1 1 1 1 1 1 1 1 1 1 1 1 1 1 1 1 1 1 1 
1 1 1 1 1 1 1 1 1 1 1 1 1 1 1 1 1 1 1 1 1 
1 1 1 1 1 1 1 1 1 1 1 1 1 1 1 1 1 1 1 1 1 
1 1 1 1 1 1 1 1 1 1 1 1 1 1 1 1 1 1 1 1 1 
1 1 1 1 1 1 1 1 1 1 1 1 1 1 1 1 1 1 1 1 1 
1 1 1 1 1 1 1 1 1 1 1 1 1 1 1 1 1 1 1 1 1 
1 1 1 1 1 1 1 1 1 1 1 1 1 1 1 1 1 1 1 1 1 
</DataArray>
<DataArray Name="ne" NumberOfComponents="1" format="ascii" type="Float64">
1 1 1 1 1 1 1 1 1 1 1 1 1 1 1 1 1 1 1 1 1 
1 1 1 1 1 1 1 1 1 1 1 1 1 1 1 1 1 1 1 1 1 
1 1 1 1 1 1 1 1 1 1 1 1 1 1 1 1 1 1 1 1 1 
1 1 1 1 1 1 1 1 1 1 1 1 1 1 1 1 1 1 1 1 1 
1 1 1 1 1 1 1 1 1 1 1 1 1 1 1 1 1 1 1 1 1 
1 1 1 1 1 1 1 1 1 1 1 1 1 1 1 1 1 1 1 1 1 
1 1 1 1 1 1 1 1 1 1 1 1 1 1 1 1 1 1 1 1 1 
1 1 1 1 1 1 1 1 1 1 1 1 1 1 1 1 1 1 1 1 1 
1 1 1 1 1 1 1 1 1 1 1 1 1 1 1 1 1 1 1 1 1 
1 1 1 1 1 1 1 1 1 1 1 1 1 1 1 1 1 1 1 1 1 
1 1 1 1 1 1 1 1 1 1 1 1 1 1 1 1 1 1 1 1 1 
1 1 1 1 1 1 1 1 1 1 1 1 1 1 1 1 1 1 1 1 1 
1 1 1 1 1 1 1 1 1 1 1 1 1 1 1 1 1 1 1 1 1 
1 1 1 1 1 1 1 1 1 1 1 1 1 1 1 1 1 1 1 1 1 
1 1 1 1 1 1 1 1 1 1 1 1 1 1 1 1 1 1 1 1 1 
1 1 1 1 1 1 1 1 1 1 1 1 1 1 1 1 1 1 1 1 1 
1 1 1 1 1 1 1 1 1 1 1 1 1 1 1 1 1 1 1 1 1 
1 1 1 1 1 1 1 1 1 1 1 1 1 1 1 1 1 1 1 1 1 
1 1 1 1 1 1 1 1 1 1 1 1 1 1 1 1 1 1 1 1 1 
1 1 1 1 1 1 1 1 1 1 1 1 1 1 1 1 1 1 1 1 1 
1 1 1 1 1 1 1 1 1 1 1 1 1 1 1 1 1 1 1 1 1 
1 1 1 1 1 1 1 1 1 1 1 1 1 1 1 1 1 1 1 1 1 
1 1 1 1 1 1 1 1 1 1 1 1 1 1 1 1 1 1 1 1 1 
1 1 1 1 1 1 1 1 1 1 1 1 1 1 1 1 1 1 1 1 1 
1 1 1 1 1 1 1 1 1 1 1 1 1 1 1 1 1 1 1 1 1 
1 1 1 1 1 1 1 1 1 1 1 1 1 1 1 1 1 1 1 1 1 
1 1 1 1 1 1 1 1 1 1 1 1 1 1 1 1 1 1 1 1 1 
1 1 1 1 1 1 1 1 1 1 1 1 1 1 1 1 1 1 1 1 1 
1 1 1 1 1 1 1 1 1 1 1 1 1 1 1 1 1 1 1 1 1 
1 1 1 1 1 1 1 1 1 1 1 1 1 1 1 1 1 1 1 1 1 
1 1 1 1 1 1 1 1 1 1 1 1 1 1 1 1 1 1 1 1 1 
1 1 1 1 1 1 1 1 1 1 1 1 1 1 1 1 1 1 1 1 1 
1 1 1 1 1 1 1 1 1 1 1 1 1 1 1 1 1 1 1 1 1 
1 1 1 1 1 1 1 1 1 1 1 1 1 1 1 1 1 1 1 1 1 
1 1 1 1 1 1 1 1 1 1 1 1 1 1 1 1 1 1 1 1 1 
1 1 1 1 1 1 1 1 1 1 1 1 1 1 1 1 1 1 1 1 1 
1 1 1 1 1 1 1 1 1 1 1 1 1 1 1 1 1 1 1 1 1 
1 1 1 1 1 1 1 1 1 1 1 1 1 1 1 1 1 1 1 1 1 
1 1 1 1 1 1 1 1 1 1 1 1 1 1 1 1 1 1 1 1 1 
1 1 1 1 1 1 1 1 1 1 1 1 1 1 1 1 1 1 1 1 1 
1 1 1 1 1 1 1 1 1 1 1 1 1 1 1 1 1 1 1 1 1 
</DataArray>
</PointData>
</Piece>
</ImageData>
</VTKFile>
