<VTKFile type="ImageData">
<ImageData Origin="0 -10 0" Spacing="0.5 0.5 1" WholeExtent="0 20 0 40 0 0">
<Piece Extent="0 20 0 40 0 0">
<PointData>
<DataArray Name="f" NumberOfComponents="1" format="ascii" type="Float64">
2.317e-13 2.317e-13 2.317e-13 2.317e-13 2.317e-13 2.317e-13 2.317e-13 2.317e-13 2.317e-13 2.317e-13 2.317e-13 2.317e-13 2.317e-13 2.317e-13 2.317e-13 2.317e-13 2.317e-13 2.317e-13 2.317e-13 2.317e-13 2.317e-13 
5.128e-12 5.128e-12 5.128e-12 5.128e-12 5.128e-12 5.128e-12 5.128e-12 5.128e-12 5.128e-12 5.128e-12 5.128e-12 5.128e-12 5.128e-12 5.128e-12 5.128e-12 5.128e-12 5.128e-12 5.128e-12 5.128e-12 5.128e-12 5.128e-12 
9.249e-11 9.249e-11 9.249e-11 9.249e-11 9.249e-11 9.249e-11 9.249e-11 9.249e-11 9.249e-11 9.249e-11 9.249e-11 9.249e-11 9.249e-11 9.249e-11 9.249e-11 9.249e-11 9.249e-11 9.249e-11 9.249e-11 9.249e-11 9.249e-11 
1.368e-09 1.368e-09 1.368e-09 1.368e-09 1.368e-09 1.368e-09 1.368e-09 1.368e-09 1.368e-09 1.368e-09 1.368e-09 1.368e-09 1.368e-09 1.368e-09 1.368e-09 1.368e-09 1.368e-09 1.368e-09 1.368e-09 1.368e-09 1.368e-09 
1.668e-08 1.668e-08 1.668e-08 1.668e-08 1.668e-08 1.668e-08 1.668e-08 1.668e-08 1.668e-08 1.668e-08 1.668e-08 1.668e-08 1.668e-08 1.668e-08 1.668e-08 1.668e-08 1.668e-08 1.668e-08 1.668e-08 1.668e-08 1.668e-08 
1.688e-07 1.688e-07 1.688e-07 1.688e-07 1.688e-07 1.688e-07 1.688e-07 1.688e-07 1.688e-07 1.688e-07 1.688e-07 1.688e-07 1.688e-07 1.688e-07 1.688e-07 1.688e-07 1.688e-07 1.688e-07 1.688e-07 1.688e-07 1.688e-07 
1.424e-06 1.424e-06 1.424e-06 1.424e-06 1.424e-06 1.424e-06 1.424e-06 1.424e-06 1.424e-06 1.424e-06 1.424e-06 1.424e-06 1.424e-06 1.424e-06 1.424e-06 1.424e-06 1.424e-06 1.424e-06 1.424e-06 1.424e-06 1.424e-06 
1.006e-05 1.006e-05 1.006e-05 1.006e-05 1.006e-05 1.006e-05 1.006e-05 1.006e-05 1.006e-05 1.006e-05 1.006e-05 1.006e-05 1.006e-05 1.006e-05 1.006e-05 1.006e-05 1.006e-05 1.006e-05 1.006e-05 1.006e-05 1.006e-05 
5.981e-05 5.981e-05 5.981e-05 5.981e-05 5.981e-05 5.981e-05 5.981e-05 5.981e-05 5.981e-05 5.981e-05 5.981e-05 5.981e-05 5.981e-05 5.981e-05 5.981e-05 5.981e-05 5.981e-05 5.981e-05 5.981e-05 5.981e-05 5.981e-05 
0.0003001 0.0003001 0.0003001 0.0003001 0.0003001 0.0003001 0.0003001 0.0003001 0.0003001 0.0003001 0.0003001 0.0003001 0.0003001 0.0003001 0.0003001 0.0003001 0.0003001 0.0003001 0.0003001 0.0003001 0.0003001 
0.001274 0.001274 0.001274 0.001274 0.001274 0.001274 0.001274 0.001274 0.001274 0.001274 0.001274 0.001274 0.001274 0.001274 0.001274 0.001274 0.001274 0.001274 0.001274 0.001274 0.001274 
0.004584 0.004584 0.004584 0.004584 0.004584 0.004584 0.004584 0.004584 0.004584 0.004584 0.004584 0.004584 0.004584 0.004584 0.004584 0.004584 0.004584 0.004584 0.004584 0.004584 0.004584 
0.01399 0.01399 0.01399 0.01399 0.01399 0.01399 0.01399 0.01399 0.01399 0.01399 0.01399 0.01399 0.01399 0.01399 0.01399 0.01399 0.01399 0.01399 0.01399 0.01399 0.01399 
0.03623 0.03623 0.03623 0.03623 0.03623 0.03623 0.03623 0.03623 0.03623 0.03623 0.03623 0.03623 0.03623 0.03623 0.03623 0.03623 0.03623 0.03623 0.03623 0.03623 0.03623 
0.07956 0.07956 0.07956 0.07956 0.07956 0.07956 0.07956 0.07956 0.07956 0.07956 0.07956 0.07956 0.07956 0.07956 0.07956 0.07956 0.07956 0.07956 0.07956 0.07956 0.07956 
0.1479 0.1479 0.1479 0.1479 0.1479 0.1479 0.1479 0.1479 0.1479 0.1479 0.1479 0.1479 0.1479 0.1479 0.1479 0.1479 0.1479 0.1479 0.1479 0.1479 0.1479 
0.2321 0.2321 0.2321 0.2321 0.2321 0.2321 0.2321 0.2321 0.2321 0.2321 0.2321 0.2321 0.2321 0.2321 0.2321 0.2321 0.2321 0.2321 0.2321 0.2321 0.2321 
0.3066 0.3066 0.3066 0.3066 0.3066 0.3066 0.3066 0.3066 0.3066 0.3066 0.3066 0.3066 0.3066 0.3066 0.3066 0.3066 0.3066 0.3066 0.3066 0.3066 0.3066 
0.3397 0.3397 0.3397 0.3397 0.3397 0.3397 0.3397 0.3397 0.3397 0.3397 0.3397 0.3397 0.3397 0.3397 0.3397 0.3397 0.3397 0.3397 0.3397 0.3397 0.3397 
0.3142 0.3142 0.3142 0.3142 0.3142 0.3142 0.3142 0.3142 0.3142 0.3142 0.3142 0.3142 0.3142 0.3142 0.3142 0.3142 0.3142 0.3142 0.3142 0.3142 0.3142 
0.2413 0.2413 0.2413 0.2413 0.2413 0.2413 0.2413 0.2413 0.2413 0.2413 0.2413 0.2413 0.2413 0.2413 0.2413 0.2413 0.2413 0.2413 0.2413 0.2413 0.2413 
0.153 0.153 0.153 0.153 0.153 0.153 0.153 0.153 0.153 0.153 0.153 0.153 0.153 0.153 0.153 0.153 0.153 0.153 0.153 0.153 0.153 
0.07966 0.07966 0.07966 0.07966 0.07966 0.07966 0.07966 0.07966 0.07966 0.07966 0.07966 0.07966 0.07966 0.07966 0.07966 0.07966 0.07966 0.07966 0.07966 0.07966 0.07966 
0.03384 0.03384 0.03384 0.03384 0.03384 0.03384 0.03384 0.03384 0.03384 0.03384 0.03384 0.03384 0.03384 0.03384 0.03384 0.03384 0.03384 0.03384 0.03384 0.03384 0.03384 
0.01166 0.01166 0.01166 0.01166 0.01166 0.01166 0.01166 0.01166 0.01166 0.01166 0.01166 0.01166 0.01166 0.01166 0.01166 0.01166 0.01166 0.01166 0.01166 0.01166 0.01166 
0.003239 0.003239 0.003239 0.003239 0.003239 0.003239 0.003239 0.003239 0.003239 0.003239 0.003239 0.003239 0.003239 0.003239 0.003239 0.003239 0.003239 0.003239 0.003239 0.003239 0.003239 
0.0007218 0.0007218 0.0007218 0.0007218 0.0007218 0.0007218 0.0007218 0.0007218 0.0007218 0.0007218 0.0007218 0.0007218 0.0007218 0.0007218 0.0007218 0.0007218 0.0007218 0.0007218 0.0007218 0.0007218 0.0007218 
0.0001284 0.0001284 0.0001284 0.0001284 0.0001284 0.0001284 0.0001284 0.0001284 0.0001284 0.0001284 0.0001284 0.0001284 0.0001284 0.0001284 0.0001284 0.0001284 0.0001284 0.0001284 0.0001284 0.0001284 0.0001284 
1.815e-05 1.815e-05 1.815e-05 1.815e-05 1.815e-05 1.815e-05 1.815e-05 1.815e-05 1.815e-05 1.815e-05 1.815e-05 1.815e-05 1.815e-05 1.815e-05 1.815e-05 1.815e-05 1.815e-05 1.815e-05 1.815e-05 1.815e-05 1.815e-05 
2.032e-06 2.032e-06 2.032e-06 2.032e-06 2.032e-06 2.032e-06 2.032e-06 2.032e-06 2.032e-06 2.032e-06 2.032e-06 2.032e-06 2.032e-06 2.032e-06 2.032e-06 2.032e-06 2.032e-06 2.032e-06 2.032e-06 2.032e-06 2.032e-06 
1.795e-07 1.795e-07 1.795e-07 1.795e-07 1.795e-07 1.795e-07 1.795e-07 1.795e-07 1.795e-07 1.795e-07 1.795e-07 1.795e-07 1.795e-07 1.795e-07 1.795e-07 1.795e-07 1.795e-07 1.795e-07 1.795e-07 1.795e-07 1.795e-07 
1.249e-08 1.249e-08 1.249e-08 1.249e-08 1.249e-08 1.249e-08 1.249e-08 1.249e-08 1.249e-08 1.249e-08 1.249e-08 1.249e-08 1.249e-08 1.249e-08 1.249e-08 1.249e-08 1.249e-08 1.249e-08 1.249e-08 1.249e-08 1.249e-08 
6.824e-10 6.824e-10 6.824e-10 6.824e-10 6.824e-10 6.824e-10 6.824e-10 6.824e-10 6.824e-10 6.824e-10 6.824e-10 6.824e-10 6.824e-10 6.824e-10 6.824e-10 6.824e-10 6.824e-10 6.824e-10 6.824e-10 6.824e-10 6.824e-10 
2.924e-11 2.924e-11 2.924e-11 2.924e-11 2.924e-11 2.924e-11 2.924e-11 2.924e-11 2.924e-11 2.924e-11 2.924e-11 2.924e-11 2.924e-11 2.924e-11 2.924e-11 2.924e-11 2.924e-11 2.924e-11 2.924e-11 2.924e-11 2.924e-11 
9.811e-13 9.811e-13 9.811e-13 9.811e-13 9.811e-13 9.811e-13 9.811e-13 9.811e-13 9.811e-13 9.811e-13 9.811e-13 9.811e-13 9.811e-13 9.811e-13 9.811e-13 9.811e-13 9.811e-13 9.811e-13 9.811e-13 9.811e-13 9.811e-13 
2.575e-14 2.575e-14 2.575e-14 2.575e-14 2.575e-14 2.575e-14 2.575e-14 2.575e-14 2.575e-14 2.575e-14 2.575e-14 2.575e-14 2.575e-14 2.575e-14 2.575e-14 2.575e-14 2.575e-14 2.575e-14 2.575e-14 2.575e-14 2.575e-14 
5.279e-16 5.279e-16 5.279e-16 5.279e-16 5.279e-16 5.279e-16 5.279e-16 5.279e-16 5.279e-16 5.279e-16 5.279e-16 5.279e-16 5.279e-16 5.279e-16 5.279e-16 5.279e-16 5.279e-16 5.279e-16 5.279e-16 5.279e-16 5.279e-16 
8.564e-18 8.564e-18 8.564e-18 8.564e-18 8.564e-18 8.564e-18 8.564e-18 8.564e-18 8.564e-18 8.564e-18 8.564e-18 8.564e-18 8.564e-18 8.564e-18 8.564e-18 8.564e-18 8.564e-18 8.564e-18 8.564e-18 8.564e-18 8.564e-18 
6.009e-18 6.009e-18 6.009e-18 6.009e-18 6.009e-18 6.009e-18 6.009e-18 6.009e-18 6.009e-18 6.009e-18 6.009e-18 6.009e-18 6.009e-18 6.009e-18 6.009e-18 6.009e-18 6.009e-18 6.009e-18 6.009e-18 6.009e-18 6.009e-18 
2.499e-16 2.499e-16 2.499e-16 2.499e-16 2.499e-16 2.499e-16 2.499e-16 2.499e-16 2.499e-16 2.499e-16 2.499e-16 2.499e-16 2.499e-16 2.499e-16 2.499e-16 2.499e-16 2.499e-16 2.499e-16 2.499e-16 2.499e-16 2.499e-16 
8.479e-15 8.479e-15 8.479e-15 8.479e-15 8.479e-15 8.479e-15 8.479e-15 8.479e-15 8.479e-15 8.479e-15 8.479e-15 8.479e-15 8.479e-15 8.479e-15 8.479e-15 8.479e-15 8.479e-15 8.479e-15 8.479e-15 8.479e-15 8.479e-15 
</DataArray>
<DataArray Name="E" NumberOfComponents="1" format="ascii" type="Float64">
1 1 1 1 1 1 1 1 1 1 1 1 1 1 1 1 1 1 1 1 1 
1 1 1 1 1 1 1 1 1 1 1 1 1 1 1 1 1 1 1 1 1 
1 1 1 1 1 1 1 1 1 1 1 1 1 1 1 1 1 1 1 1 1 
1 1 1 1 1 1 1 1 1 1 1 1 1 1 1 1 1 1 1 1 1 
1 1 1 1 1 1 1 1 1 1 1 1 1 1 1 1 1 1 1 1 1 
1 1 1 1 1 1 1 1 1 1 1 1 1 1 1 1 1 1 1 1 1 
1 1 1 1 1 1 1 1 1 1 1 1 1 1 1 1 1 1 1 1 1 
1 1 1 1 1 1 1 1 1 1 1 1 1 1 1 1 1 1 1 1 1 
1 1 1 1 1 1 1 1 1 1 1 1 1 1 1 1 1 1 1 1 1 
1 1 1 1 1 1 1 1 1 1 1 1 1 1 1 1 1 1 1 1 1 
1 1 1 1 1 1 1 1 1 1 1 1 1 1 1 1 1 1 1 1 1 
1 1 1 1 1 1 1 1 1 1 1 1 1 1 1 1 1 1 1 1 1 
1 1 1 1 1 1 1 1 1 1 1 1 1 1 1 1 1 1 1 1 1 
1 1 1 1 1 1 1 1 1 1 1 1 1 1 1 1 1 1 1 1 1 
1 1 1 1 1 1 1 1 1 1 1 1 1 1 1 1 1 1 1 1 1 
1 1 1 1 1 1 1 1 1 1 1 1 1 1 1 1 1 1 1 1 1 
1 1 1 1 1 1 1 1 1 1 1 1 1 1 1 1 1 1 1 1 1 
1 1 1 1 1 1 1 1 1 1 1 1 1 1 1 1 1 1 1 1 1 
1 1 1 1 1 1 1 1 1 1 1 1 1 1 1 1 1 1 1 1 1 
1 1 1 1 1 1 1 1 1 1 1 1 1 1 1 1 1 1 1 1 1 
1 1 1 1 1 1 1 1 1 1 1 1 1 1 1 1 1 1 1 1 1 
1 1 1 1 1 1 1 1 1 1 1 1 1 1 1 1 1 1 1 1 1 
1 1 1 1 1 1 1 1 1 1 1 1 1 1 1 1 1 1 1 1 1 
1 1 1 1 1 1 1 1 1 1 1 1 1 1 1 1 1 1 1 1 1 
1 1 1 1 1 1 1 1 1 1 1 1 1 1 1 1 1 1 1 1 1 
1 1 1 1 1 1 1 1 1 1 1 1 1 1 1 1 1 1 1 1 1 
1 1 1 1 1 1 1 1 1 1 1 1 1 1 1 1 1 1 1 1 1 
1 1 1 1 1 1 1 1 1 1 1 1 1 1 1 1 1 1 1 1 1 
1 1 1 1 1 1 1 1 1 1 1 1 1 1 1 1 1 1 1 1 1 
1 1 1 1 1 1 1 1 1 1 1 1 1 1 1 1 1 1 1 1 1 
1 1 1 1 1 1 1 1 1 1 1 1 1 1 1 1 1 1 1 1 1 
1 1 1 1 1 1 1 1 1 1 1 1 1 1 1 1 1 1 1 1 1 
1 1 1 1 1 1 1 1 1 1 1 1 1 1 1 1 1 1 1 1 1 
1 1 1 1 1 1 1 1 1 1 1 1 1 1 1 1 1 1 1 1 1 
1 1 1 1 1 1 1 1 1 1 1 1 1 1 1 1 1 1 1 1 1 
1 1 1 1 1 1 1 1 1 1 1 1 1 1 1 1 1 1 1 1 1 
1 1 1 1 1 1 1 1 1 1 1 1 1 1 1 1 1 1 1 1 1 
1 1 1 1 1 1 1 1 1 1 1 1 1 1 1 1 1 1 1 1 1 
1 1 1 1 1 1 1 1 1 1 1 1 1 1 1 1 1 1 1 1 1 
1 1 1 1 1 1 1 1 1 1 1 1 1 1 1 1 1 1 1 1 1 
1 1 1 1 1 1 1 1 1 1 1 1 1 1 1 1 1 1 1 1 1 
</DataArray>
<DataArray Name="ne" NumberOfComponents="1" format="ascii" type="Float64">
1 1 1 1 1 1 1 1 1 1 1 1 1 1 1 1 1 1 1 1 1 
1 1 1 1 1 1 1 1 1 1 1 1 1 1 1 1 1 1 1 1 1 
1 1 1 1 1 1 1 1 1 1 1 1 1 1 1 1 1 1 1 1 1 
1 1 1 1 1 1 1 1 1 1 1 1 1 1 1 1 1 1 1 1 1 
1 1 1 1 1 1 1 1 1 1 1 1 1 1 1 1 1 1 1 1 1 
1 1 1 1 1 1 1 1 1 1 1 1 1 1 1 1 1 1 1 1 1 
1 1 1 1 1 1 1 1 1 1 1 1 1 1 1 1 1 1 1 1 1 
1 1 1 1 1 1 1 1 1 1 1 1 1 1 1 1 1 1 1 1 1 
1 1 1 1 1 1 1 1 1 1 1 1 1 1 1 1 1 1 1 1 1 
1 1 1 1 1 1 1 1 1 1 1 1 1 1 1 1 1 1 1 1 1 
1 1 1 1 1 1 1 1 1 1 1 1 1 1 1 1 1 1 1 1 1 
1 1 1 1 1 1 1 1 1 1 1 1 1 1 1 1 1 1 1 1 1 
1 1 1 1 1 1 1 1 1 1 1 1 1 1 1 1 1 1 1 1 1 
1 1 1 1 1 1 1 1 1 1 1 1 1 1 1 1 1 1 1 1 1 
1 1 1 1 1 1 1 1 1 1 1 1 1 1 1 1 1 1 1 1 1 
1 1 1 1 1 1 1 1 1 1 1 1 1 1 1 1 1 1 1 1 1 
1 1 1 1 1 1 1 1 1 1 1 1 1 1 1 1 1 1 1 1 1 
1 1 1 1 1 1 1 1 1 1 1 1 1 1 1 1 1 1 1 1 1 
1 1 1 1 1 1 1 1 1 1 1 1 1 1 1 1 1 1 1 1 1 
1 1 1 1 1 1 1 1 1 1 1 1 1 1 1 1 1 1 1 1 1 
1 1 1 1 1 1 1 1 1 1 1 1 1 1 1 1 1 1 1 1 1 
1 1 1 1 1 1 1 1 1 1 1 1 1 1 1 1 1 1 1 1 1 
1 1 1 1 1 1 1 1 1 1 1 1 1 1 1 1 1 1 1 1 1 
1 1 1 1 1 1 1 1 1 1 1 1 1 1 1 1 1 1 1 1 1 
1 1 1 1 1 1 1 1 1 1 1 1 1 1 1 1 1 1 1 1 1 
1 1 1 1 1 1 1 1 1 1 1 1 1 1 1 1 1 1 1 1 1 
1 1 1 1 1 1 1 1 1 1 1 1 1 1 1 1 1 1 1 1 1 
1 1 1 1 1 1 1 1 1 1 1 1 1 1 1 1 1 1 1 1 1 
1 1 1 1 1 1 1 1 1 1 1 1 1 1 1 1 1 1 1 1 1 
1 1 1 1 1 1 1 1 1 1 1 1 1 1 1 1 1 1 1 1 1 
1 1 1 1 1 1 1 1 1 1 1 1 1 1 1 1 1 1 1 1 1 
1 1 1 1 1 1 1 1 1 1 1 1 1 1 1 1 1 1 1 1 1 
1 1 1 1 1 1 1 1 1 1 1 1 1 1 1 1 1 1 1 1 1 
1 1 1 1 1 1 1 1 1 1 1 1 1 1 1 1 1 1 1 1 1 
1 1 1 1 1 1 1 1 1 1 1 1 1 1 1 1 1 1 1 1 1 
1 1 1 1 1 1 1 1 1 1 1 1 1 1 1 1 1 1 1 1 1 
1 1 1 1 1 1 1 1 1 1 1 1 1 1 1 1 1 1 1 1 1 
1 1 1 1 1 1 1 1 1 1 1 1 1 1 1 1 1 1 1 1 1 
1 1 1 1 1 1 1 1 1 1 1 1 1 1 1 1 1 1 1 1 1 
1 1 1 1 1 1 1 1 1 1 1 1 1 1 1 1 1 1 1 1 1 
1 1 1 1 1 1 1 1 1 1 1 1 1 1 1 1 1 1 1 1 1 
</DataArray>
</PointData>
</Piece>
</ImageData>
</VTKFile>
