<VTKFile type="ImageData">
<ImageData Origin="0 -10 0" Spacing="0.5 0.5 1" WholeExtent="0 20 0 40 0 0">
<Piece Extent="0 20 0 40 0 0">
<PointData>
<DataArray Name="f" NumberOfComponents="1" format="ascii" type="Float64">
5.82e-05 5.82e-05 5.82e-05 5.82e-05 5.82e-05 5.82e-05 5.82e-05 5.82e-05 5.82e-05 5.82e-05 5.82e-05 5.82e-05 5.82e-05 5.82e-05 5.82e-05 5.82e-05 5.82e-05 5.82e-05 5.82e-05 5.82e-05 5.82e-05 
0.0001928 0.0001928 0.0001928 0.0001928 0.0001928 0.0001928 0.0001928 0.0001928 0.0001928 0.0001928 0.0001928 0.0001928 0.0001928 0.0001928 0.0001928 0.0001928 0.0001928 0.0001928 0.0001928 0.0001928 0.0001928 
0.0005841 0.0005841 0.0005841 0.0005841 0.0005841 0.0005841 0.0005841 0.0005841 0.0005841 0.0005841 0.0005841 0.0005841 0.0005841 0.0005841 0.0005841 0.0005841 0.0005841 0.0005841 0.0005841 0.0005841 0.0005841 
0.001618 0.001618 0.001618 0.001618 0.001618 0.001618 0.001618 0.001618 0.001618 0.001618 0.001618 0.001618 0.001618 0.001618 0.001618 0.001618 0.001618 0.001618 0.001618 0.001618 0.001618 
0.004095 0.004095 0.004095 0.004095 0.004095 0.004095 0.004095 0.004095 0.004095 0.004095 0.004095 0.004095 0.004095 0.004095 0.004095 0.004095 0.004095 0.004095 0.004095 0.004095 0.004095 
0.009471 0.009471 0.009471 0.009471 0.009471 0.009471 0.009471 0.009471 0.009471 0.009471 0.009471 0.009471 0.009471 0.009471 0.009471 0.009471 0.009471 0.009471 0.009471 0.009471 0.009471 
0.02 0.02 0.02 0.02 0.02 0.02 0.02 0.02 0.02 0.02 0.02 0.02 0.02 0.02 0.02 0.02 0.02 0.02 0.02 0.02 0.02 
0.03853 0.03853 0.03853 0.03853 0.03853 0.03853 0.03853 0.03853 0.03853 0.03853 0.03853 0.03853 0.03853 0.03853 0.03853 0.03853 0.03853 0.03853 0.03853 0.03853 0.03853 
0.06762 0.06762 0.06762 0.06762 0.06762 0.06762 0.06762 0.06762 0.06762 0.06762 0.06762 0.06762 0.06762 0.06762 0.06762 0.06762 0.06762 0.06762 0.06762 0.06762 0.06762 
0.108 0.108 0.108 0.108 0.108 0.108 0.108 0.108 0.108 0.108 0.108 0.108 0.108 0.108 0.108 0.108 0.108 0.108 0.108 0.108 0.108 
0.1565 0.1565 0.1565 0.1565 0.1565 0.1565 0.1565 0.1565 0.1565 0.1565 0.1565 0.1565 0.1565 0.1565 0.1565 0.1565 0.1565 0.1565 0.1565 0.1565 0.1565 
0.2056 0.2056 0.2056 0.2056 0.2056 0.2056 0.2056 0.2056 0.2056 0.2056 0.2056 0.2056 0.2056 0.2056 0.2056 0.2056 0.2056 0.2056 0.2056 0.2056 0.2056 
0.2443 0.2443 0.2443 0.2443 0.2443 0.2443 0.2443 0.2443 0.2443 0.2443 0.2443 0.2443 0.2443 0.2443 0.2443 0.2443 0.2443 0.2443 0.2443 0.2443 0.2443 
0.2616 0.2616 0.2616 0.2616 0.2616 0.2616 0.2616 0.2616 0.2616 0.2616 0.2616 0.2616 0.2616 0.2616 0.2616 0.2616 0.2616 0.2616 0.2616 0.2616 0.2616 
0.2518 0.2518 0.2518 0.2518 0.2518 0.2518 0.2518 0.2518 0.2518 0.2518 0.2518 0.2518 0.2518 0.2518 0.2518 0.2518 0.2518 0.2518 0.2518 0.2518 0.2518 
0.217 0.217 0.217 0.217 0.217 0.217 0.217 0.217 0.217 0.217 0.217 0.217 0.217 0.217 0.217 0.217 0.217 0.217 0.217 0.217 0.217 
0.1669 0.1669 0.1669 0.1669 0.1669 0.1669 0.1669 0.1669 0.1669 0.1669 0.1669 0.1669 0.1669 0.1669 0.1669 0.1669 0.1669 0.1669 0.1669 0.1669 0.1669 
0.1139 0.1139 0.1139 0.1139 0.1139 0.1139 0.1139 0.1139 0.1139 0.1139 0.1139 0.1139 0.1139 0.1139 0.1139 0.1139 0.1139 0.1139 0.1139 0.1139 0.1139 
0.06875 0.06875 0.06875 0.06875 0.06875 0.06875 0.06875 0.06875 0.06875 0.06875 0.06875 0.06875 0.06875 0.06875 0.06875 0.06875 0.06875 0.06875 0.06875 0.06875 0.06875 
0.03646 0.03646 0.03646 0.03646 0.03646 0.03646 0.03646 0.03646 0.03646 0.03646 0.03646 0.03646 0.03646 0.03646 0.03646 0.03646 0.03646 0.03646 0.03646 0.03646 0.03646 
0.01689 0.01689 0.01689 0.01689 0.01689 0.01689 0.01689 0.01689 0.01689 0.01689 0.01689 0.01689 0.01689 0.01689 0.01689 0.01689 0.01689 0.01689 0.01689 0.01689 0.01689 
0.006788 0.006788 0.006788 0.006788 0.006788 0.006788 0.006788 0.006788 0.006788 0.006788 0.006788 0.006788 0.006788 0.006788 0.006788 0.006788 0.006788 0.006788 0.006788 0.006788 0.006788 
0.002351 0.002351 0.002351 0.002351 0.002351 0.002351 0.002351 0.002351 0.002351 0.002351 0.002351 0.002351 0.002351 0.002351 0.002351 0.002351 0.002351 0.002351 0.002351 0.002351 0.002351 
0.0006967 0.0006967 0.0006967 0.0006967 0.0006967 0.0006967 0.0006967 0.0006967 0.0006967 0.0006967 0.0006967 0.0006967 0.0006967 0.0006967 0.0006967 0.0006967 0.0006967 0.0006967 0.0006967 0.0006967 0.0006967 
0.0001751 0.0001751 0.0001751 0.0001751 0.0001751 0.0001751 0.0001751 0.0001751 0.0001751 0.0001751 0.0001751 0.0001751 0.0001751 0.0001751 0.0001751 0.0001751 0.0001751 0.0001751 0.0001751 0.0001751 0.0001751 
3.704e-05 3.704e-05 3.704e-05 3.704e-05 3.704e-05 3.704e-05 3.704e-05 3.704e-05 3.704e-05 3.704e-05 3.704e-05 3.704e-05 3.704e-05 3.704e-05 3.704e-05 3.704e-05 3.704e-05 3.704e-05 3.704e-05 3.704e-05 3.704e-05 
6.538e-06 6.538e-06 6.538e-06 6.538e-06 6.538e-06 6.538e-06 6.538e-06 6.538e-06 6.538e-06 6.538e-06 6.538e-06 6.538e-06 6.538e-06 6.538e-06 6.538e-06 6.538e-06 6.538e-06 6.538e-06 6.538e-06 6.538e-06 6.538e-06 
9.552e-07 9.552e-07 9.552e-07 9.552e-07 9.552e-07 9.552e-07 9.552e-07 9.552e-07 9.552e-07 9.552e-07 9.552e-07 9.552e-07 9.552e-07 9.552e-07 9.552e-07 9.552e-07 9.552e-07 9.552e-07 9.552e-07 9.552e-07 9.552e-07 
1.146e-07 1.146e-07 1.146e-07 1.146e-07 1.146e-07 1.146e-07 1.146e-07 1.146e-07 1.146e-07 1.146e-07 1.146e-07 1.146e-07 1.146e-07 1.146e-07 1.146e-07 1.146e-07 1.146e-07 1.146e-07 1.146e-07 1.146e-07 1.146e-07 
1.119e-08 1.119e-08 1.119e-08 1.119e-08 1.119e-08 1.119e-08 1.119e-08 1.119e-08 1.119e-08 1.119e-08 1.119e-08 1.119e-08 1.119e-08 1.119e-08 1.119e-08 1.119e-08 1.119e-08 1.119e-08 1.119e-08 1.119e-08 1.119e-08 
8.851e-10 8.851e-10 8.851e-10 8.851e-10 8.851e-10 8.851e-10 8.851e-10 8.851e-10 8.851e-10 8.851e-10 8.851e-10 8.851e-10 8.851e-10 8.851e-10 8.851e-10 8.851e-10 8.851e-10 8.851e-10 8.851e-10 8.851e-10 8.851e-10 
5.843e-11 5.843e-11 5.843e-11 5.843e-11 5.843e-11 5.843e-11 5.843e-11 5.843e-11 5.843e-11 5.843e-11 5.843e-11 5.843e-11 5.843e-11 5.843e-11 5.843e-11 5.843e-11 5.843e-11 5.843e-11 5.843e-11 5.843e-11 5.843e-11 
2.174e-11 2.174e-11 2.174e-11 2.174e-11 2.174e-11 2.174e-11 2.174e-11 2.174e-11 2.174e-11 2.174e-11 2.174e-11 2.174e-11 2.174e-11 2.174e-11 2.174e-11 2.174e-11 2.174e-11 2.174e-11 2.174e-11 2.174e-11 2.174e-11 
1.463e-10 1.463e-10 1.463e-10 1.463e-10 1.463e-10 1.463e-10 1.463e-10 1.463e-10 1.463e-10 1.463e-10 1.463e-10 1.463e-10 1.463e-10 1.463e-10 1.463e-10 1.463e-10 1.463e-10 1.463e-10 1.463e-10 1.463e-10 1.463e-10 
1.023e-09 1.023e-09 1.023e-09 1.023e-09 1.023e-09 1.023e-09 1.023e-09 1.023e-09 1.023e-09 1.023e-09 1.023e-09 1.023e-09 1.023e-09 1.023e-09 1.023e-09 1.023e-09 1.023e-09 1.023e-09 1.023e-09 1.023e-09 1.023e-09 
6.487e-09 6.487e-09 6.487e-09 6.487e-09 6.487e-09 6.487e-09 6.487e-09 6.487e-09 6.487e-09 6.487e-09 6.487e-09 6.487e-09 6.487e-09 6.487e-09 6.487e-09 6.487e-09 6.487e-09 6.487e-09 6.487e-09 6.487e-09 6.487e-09 
3.733e-08 3.733e-08 3.733e-08 3.733e-08 3.733e-08 3.733e-08 3.733e-08 3.733e-08 3.733e-08 3.733e-08 3.733e-08 3.733e-08 3.733e-08 3.733e-08 3.733e-08 3.733e-08 3.733e-08 3.733e-08 3.733e-08 3.733e-08 3.733e-08 
1.953e-07 1.953e-07 1.953e-07 1.953e-07 1.953e-07 1.953e-07 1.953e-07 1.953e-07 1.953e-07 1.953e-07 1.953e-07 1.953e-07 1.953e-07 1.953e-07 1.953e-07 1.953e-07 1.953e-07 1.953e-07 1.953e-07 1.953e-07 1.953e-07 
9.309e-07 9.309e-07 9.309e-07 9.309e-07 9.309e-07 9.309e-07 9.309e-07 9.309e-07 9.309e-07 9.309e-07 9.309e-07 9.309e-07 9.309e-07 9.309e-07 9.309e-07 9.309e-07 9.309e-07 9.309e-07 9.309e-07 9.309e-07 9.309e-07 
4.046e-06 4.046e-06 4.046e-06 4.046e-06 4.046e-06 4.046e-06 4.046e-06 4.046e-06 4.046e-06 4.046e-06 4.046e-06 4.046e-06 4.046e-06 4.046e-06 4.046e-06 4.046e-06 4.046e-06 4.046e-06 4.046e-06 4.046e-06 4.046e-06 
1.606e-05 1.606e-05 1.606e-05 1.606e-05 1.606e-05 1.606e-05 1.606e-05 1.606e-05 1.606e-05 1.606e-05 1.606e-05 1.606e-05 1.606e-05 1.606e-05 1.606e-05 1.606e-05 1.606e-05 1.606e-05 1.606e-05 1.606e-05 1.606e-05 
</DataArray>
<DataArray Name="E" NumberOfComponents="1" format="ascii" type="Float64">
0.9955 0.9955 0.9955 0.9955 0.9955 0.9955 0.9955 0.9955 0.9955 0.9955 0.9955 0.9955 0.9955 0.9955 0.9955 0.9955 0.9955 0.9955 0.9955 0.9955 0.9955 
0.9955 0.9955 0.9955 0.9955 0.9955 0.9955 0.9955 0.9955 0.9955 0.9955 0.9955 0.9955 0.9955 0.9955 0.9955 0.9955 0.9955 0.9955 0.9955 0.9955 0.9955 
0.9955 0.9955 0.9955 0.9955 0.9955 0.9955 0.9955 0.9955 0.9955 0.9955 0.9955 0.9955 0.9955 0.9955 0.9955 0.9955 0.9955 0.9955 0.9955 0.9955 0.9955 
0.9955 0.9955 0.9955 0.9955 0.9955 0.9955 0.9955 0.9955 0.9955 0.9955 0.9955 0.9955 0.9955 0.9955 0.9955 0.9955 0.9955 0.9955 0.9955 0.9955 0.9955 
0.9955 0.9955 0.9955 0.9955 0.9955 0.9955 0.9955 0.9955 0.9955 0.9955 0.9955 0.9955 0.9955 0.9955 0.9955 0.9955 0.9955 0.9955 0.9955 0.9955 0.9955 
0.9955 0.9955 0.9955 0.9955 0.9955 0.9955 0.9955 0.9955 0.9955 0.9955 0.9955 0.9955 0.9955 0.9955 0.9955 0.9955 0.9955 0.9955 0.9955 0.9955 0.9955 
0.9955 0.9955 0.9955 0.9955 0.9955 0.9955 0.9955 0.9955 0.9955 0.9955 0.9955 0.9955 0.9955 0.9955 0.9955 0.9955 0.9955 0.9955 0.9955 0.9955 0.9955 
0.9955 0.9955 0.9955 0.9955 0.9955 0.9955 0.9955 0.9955 0.9955 0.9955 0.9955 0.9955 0.9955 0.9955 0.9955 0.9955 0.9955 0.9955 0.9955 0.9955 0.9955 
0.9955 0.9955 0.9955 0.9955 0.9955 0.9955 0.9955 0.9955 0.9955 0.9955 0.9955 0.9955 0.9955 0.9955 0.9955 0.9955 0.9955 0.9955 0.9955 0.9955 0.9955 
0.9955 0.9955 0.9955 0.9955 0.9955 0.9955 0.9955 0.9955 0.9955 0.9955 0.9955 0.9955 0.9955 0.9955 0.9955 0.9955 0.9955 0.9955 0.9955 0.9955 0.9955 
0.9955 0.9955 0.9955 0.9955 0.9955 0.9955 0.9955 0.9955 0.9955 0.9955 0.9955 0.9955 0.9955 0.9955 0.9955 0.9955 0.9955 0.9955 0.9955 0.9955 0.9955 
0.9955 0.9955 0.9955 0.9955 0.9955 0.9955 0.9955 0.9955 0.9955 0.9955 0.9955 0.9955 0.9955 0.9955 0.9955 0.9955 0.9955 0.9955 0.9955 0.9955 0.9955 
0.9955 0.9955 0.9955 0.9955 0.9955 0.9955 0.9955 0.9955 0.9955 0.9955 0.9955 0.9955 0.9955 0.9955 0.9955 0.9955 0.9955 0.9955 0.9955 0.9955 0.9955 
0.9955 0.9955 0.9955 0.9955 0.9955 0.9955 0.9955 0.9955 0.9955 0.9955 0.9955 0.9955 0.9955 0.9955 0.9955 0.9955 0.9955 0.9955 0.9955 0.9955 0.9955 
0.9955 0.9955 0.9955 0.9955 0.9955 0.9955 0.9955 0.9955 0.9955 0.9955 0.9955 0.9955 0.9955 0.9955 0.9955 0.9955 0.9955 0.9955 0.9955 0.9955 0.9955 
0.9955 0.9955 0.9955 0.9955 0.9955 0.9955 0.9955 0.9955 0.9955 0.9955 0.9955 0.9955 0.9955 0.9955 0.9955 0.9955 0.9955 0.9955 0.9955 0.9955 0.9955 
0.9955 0.9955 0.9955 0.9955 0.9955 0.9955 0.9955 0.9955 0.9955 0.9955 0.9955 0.9955 0.9955 0.9955 0.9955 0.9955 0.9955 0.9955 0.9955 0.9955 0.9955 
0.9955 0.9955 0.9955 0.9955 0.9955 0.9955 0.9955 0.9955 0.9955 0.9955 0.9955 0.9955 0.9955 0.9955 0.9955 0.9955 0.9955 0.9955 0.9955 0.9955 0.9955 
0.9955 0.9955 0.9955 0.9955 0.9955 0.9955 0.9955 0.9955 0.9955 0.9955 0.9955 0.9955 0.9955 0.9955 0.9955 0.9955 0.9955 0.9955 0.9955 0.9955 0.9955 
0.9955 0.9955 0.9955 0.9955 0.9955 0.9955 0.9955 0.9955 0.9955 0.9955 0.9955 0.9955 0.9955 0.9955 0.9955 0.9955 0.9955 0.9955 0.9955 0.9955 0.9955 
0.9955 0.9955 0.9955 0.9955 0.9955 0.9955 0.9955 0.9955 0.9955 0.9955 0.9955 0.9955 0.9955 0.9955 0.9955 0.9955 0.9955 0.9955 0.9955 0.9955 0.9955 
0.9955 0.9955 0.9955 0.9955 0.9955 0.9955 0.9955 0.9955 0.9955 0.9955 0.9955 0.9955 0.9955 0.9955 0.9955 0.9955 0.9955 0.9955 0.9955 0.9955 0.9955 
0.9955 0.9955 0.9955 0.9955 0.9955 0.9955 0.9955 0.9955 0.9955 0.9955 0.9955 0.9955 0.9955 0.9955 0.9955 0.9955 0.9955 0.9955 0.9955 0.9955 0.9955 
0.9955 0.9955 0.9955 0.9955 0.9955 0.9955 0.9955 0.9955 0.9955 0.9955 0.9955 0.9955 0.9955 0.9955 0.9955 0.9955 0.9955 0.9955 0.9955 0.9955 0.9955 
0.9955 0.9955 0.9955 0.9955 0.9955 0.9955 0.9955 0.9955 0.9955 0.9955 0.9955 0.9955 0.9955 0.9955 0.9955 0.9955 0.9955 0.9955 0.9955 0.9955 0.9955 
0.9955 0.9955 0.9955 0.9955 0.9955 0.9955 0.9955 0.9955 0.9955 0.9955 0.9955 0.9955 0.9955 0.9955 0.9955 0.9955 0.9955 0.9955 0.9955 0.9955 0.9955 
0.9955 0.9955 0.9955 0.9955 0.9955 0.9955 0.9955 0.9955 0.9955 0.9955 0.9955 0.9955 0.9955 0.9955 0.9955 0.9955 0.9955 0.9955 0.9955 0.9955 0.9955 
0.9955 0.9955 0.9955 0.9955 0.9955 0.9955 0.9955 0.9955 0.9955 0.9955 0.9955 0.9955 0.9955 0.9955 0.9955 0.9955 0.9955 0.9955 0.9955 0.9955 0.9955 
0.9955 0.9955 0.9955 0.9955 0.9955 0.9955 0.9955 0.9955 0.9955 0.9955 0.9955 0.9955 0.9955 0.9955 0.9955 0.9955 0.9955 0.9955 0.9955 0.9955 0.9955 
0.9955 0.9955 0.9955 0.9955 0.9955 0.9955 0.9955 0.9955 0.9955 0.9955 0.9955 0.9955 0.9955 0.9955 0.9955 0.9955 0.9955 0.9955 0.9955 0.9955 0.9955 
0.9955 0.9955 0.9955 0.9955 0.9955 0.9955 0.9955 0.9955 0.9955 0.9955 0.9955 0.9955 0.9955 0.9955 0.9955 0.9955 0.9955 0.9955 0.9955 0.9955 0.9955 
0.9955 0.9955 0.9955 0.9955 0.9955 0.9955 0.9955 0.9955 0.9955 0.9955 0.9955 0.9955 0.9955 0.9955 0.9955 0.9955 0.9955 0.9955 0.9955 0.9955 0.9955 
0.9955 0.9955 0.9955 0.9955 0.9955 0.9955 0.9955 0.9955 0.9955 0.9955 0.9955 0.9955 0.9955 0.9955 0.9955 0.9955 0.9955 0.9955 0.9955 0.9955 0.9955 
0.9955 0.9955 0.9955 0.9955 0.9955 0.9955 0.9955 0.9955 0.9955 0.9955 0.9955 0.9955 0.9955 0.9955 0.9955 0.9955 0.9955 0.9955 0.9955 0.9955 0.9955 
0.9955 0.9955 0.9955 0.9955 0.9955 0.9955 0.9955 0.9955 0.9955 0.9955 0.9955 0.9955 0.9955 0.9955 0.9955 0.9955 0.9955 0.9955 0.9955 0.9955 0.9955 
0.9955 0.9955 0.9955 0.9955 0.9955 0.9955 0.9955 0.9955 0.9955 0.9955 0.9955 0.9955 0.9955 0.9955 0.9955 0.9955 0.9955 0.9955 0.9955 0.9955 0.9955 
0.9955 0.9955 0.9955 0.9955 0.9955 0.9955 0.9955 0.9955 0.9955 0.9955 0.9955 0.9955 0.9955 0.9955 0.9955 0.9955 0.9955 0.9955 0.9955 0.9955 0.9955 
0.9955 0.9955 0.9955 0.9955 0.9955 0.9955 0.9955 0.9955 0.9955 0.9955 0.9955 0.9955 0.9955 0.9955 0.9955 0.9955 0.9955 0.9955 0.9955 0.9955 0.9955 
0.9955 0.9955 0.9955 0.9955 0.9955 0.9955 0.9955 0.9955 0.9955 0.9955 0.9955 0.9955 0.9955 0.9955 0.9955 0.9955 0.9955 0.9955 0.9955 0.9955 0.9955 
0.9955 0.9955 0.9955 0.9955 0.9955 0.9955 0.9955 0.9955 0.9955 0.9955 0.9955 0.9955 0.9955 0.9955 0.9955 0.9955 0.9955 0.9955 0.9955 0.9955 0.9955 
0.9955 0.9955 0.9955 0.9955 0.9955 0.9955 0.9955 0.9955 0.9955 0.9955 0.9955 0.9955 0.9955 0.9955 0.9955 0.9955 0.9955 0.9955 0.9955 0.9955 0.9955 
</DataArray>
<DataArray Name="ne" NumberOfComponents="1" format="ascii" type="Float64">
1 1 1 1 1 1 1 1 1 1 1 1 1 1 1 1 1 1 1 1 1 
1 1 1 1 1 1 1 1 1 1 1 1 1 1 1 1 1 1 1 1 1 
1 1 1 1 1 1 1 1 1 1 1 1 1 1 1 1 1 1 1 1 1 
1 1 1 1 1 1 1 1 1 1 1 1 1 1 1 1 1 1 1 1 1 
1 1 1 1 1 1 1 1 1 1 1 1 1 1 1 1 1 1 1 1 1 
1 1 1 1 1 1 1 1 1 1 1 1 1 1 1 1 1 1 1 1 1 
1 1 1 1 1 1 1 1 1 1 1 1 1 1 1 1 1 1 1 1 1 
1 1 1 1 1 1 1 1 1 1 1 1 1 1 1 1 1 1 1 1 1 
1 1 1 1 1 1 1 1 1 1 1 1 1 1 1 1 1 1 1 1 1 
1 1 1 1 1 1 1 1 1 1 1 1 1 1 1 1 1 1 1 1 1 
1 1 1 1 1 1 1 1 1 1 1 1 1 1 1 1 1 1 1 1 1 
1 1 1 1 1 1 1 1 1 1 1 1 1 1 1 1 1 1 1 1 1 
1 1 1 1 1 1 1 1 1 1 1 1 1 1 1 1 1 1 1 1 1 
1 1 1 1 1 1 1 1 1 1 1 1 1 1 1 1 1 1 1 1 1 
1 1 1 1 1 1 1 1 1 1 1 1 1 1 1 1 1 1 1 1 1 
1 1 1 1 1 1 1 1 1 1 1 1 1 1 1 1 1 1 1 1 1 
1 1 1 1 1 1 1 1 1 1 1 1 1 1 1 1 1 1 1 1 1 
1 1 1 1 1 1 1 1 1 1 1 1 1 1 1 1 1 1 1 1 1 
1 1 1 1 1 1 1 1 1 1 1 1 1 1 1 1 1 1 1 1 1 
1 1 1 1 1 1 1 1 1 1 1 1 1 1 1 1 1 1 1 1 1 
1 1 1 1 1 1 1 1 1 1 1 1 1 1 1 1 1 1 1 1 1 
1 1 1 1 1 1 1 1 1 1 1 1 1 1 1 1 1 1 1 1 1 
1 1 1 1 1 1 1 1 1 1 1 1 1 1 1 1 1 1 1 1 1 
1 1 1 1 1 1 1 1 1 1 1 1 1 1 1 1 1 1 1 1 1 
1 1 1 1 1 1 1 1 1 1 1 1 1 1 1 1 1 1 1 1 1 
1 1 1 1 1 1 1 1 1 1 1 1 1 1 1 1 1 1 1 1 1 
1 1 1 1 1 1 1 1 1 1 1 1 1 1 1 1 1 1 1 1 1 
1 1 1 1 1 1 1 1 1 1 1 1 1 1 1 1 1 1 1 1 1 
1 1 1 1 1 1 1 1 1 1 1 1 1 1 1 1 1 1 1 1 1 
1 1 1 1 1 1 1 1 1 1 1 1 1 1 1 1 1 1 1 1 1 
1 1 1 1 1 1 1 1 1 1 1 1 1 1 1 1 1 1 1 1 1 
1 1 1 1 1 1 1 1 1 1 1 1 1 1 1 1 1 1 1 1 1 
1 1 1 1 1 1 1 1 1 1 1 1 1 1 1 1 1 1 1 1 1 
1 1 1 1 1 1 1 1 1 1 1 1 1 1 1 1 1 1 1 1 1 
1 1 1 1 1 1 1 1 1 1 1 1 1 1 1 1 1 1 1 1 1 
1 1 1 1 1 1 1 1 1 1 1 1 1 1 1 1 1 1 1 1 1 
1 1 1 1 1 1 1 1 1 1 1 1 1 1 1 1 1 1 1 1 1 
1 1 1 1 1 1 1 1 1 1 1 1 1 1 1 1 1 1 1 1 1 
1 1 1 1 1 1 1 1 1 1 1 1 1 1 1 1 1 1 1 1 1 
1 1 1 1 1 1 1 1 1 1 1 1 1 1 1 1 1 1 1 1 1 
1 1 1 1 1 1 1 1 1 1 1 1 1 1 1 1 1 1 1 1 1 
</DataArray>
</PointData>
</Piece>
</ImageData>
</VTKFile>
