<VTKFile type="ImageData">
<ImageData Origin="0 -10 0" Spacing="0.5 0.5 1" WholeExtent="0 20 0 40 0 0">
<Piece Extent="0 20 0 40 0 0">
<PointData>
<DataArray Name="f" NumberOfComponents="1" format="ascii" type="Float64">
1.416e-05 1.416e-05 1.416e-05 1.416e-05 1.416e-05 1.416e-05 1.416e-05 1.416e-05 1.416e-05 1.416e-05 1.416e-05 1.416e-05 1.416e-05 1.416e-05 1.416e-05 1.416e-05 1.416e-05 1.416e-05 1.416e-05 1.416e-05 1.416e-05 
4.007e-05 4.007e-05 4.007e-05 4.007e-05 4.007e-05 4.007e-05 4.007e-05 4.007e-05 4.007e-05 4.007e-05 4.007e-05 4.007e-05 4.007e-05 4.007e-05 4.007e-05 4.007e-05 4.007e-05 4.007e-05 4.007e-05 4.007e-05 4.007e-05 
0.0001068 0.0001068 0.0001068 0.0001068 0.0001068 0.0001068 0.0001068 0.0001068 0.0001068 0.0001068 0.0001068 0.0001068 0.0001068 0.0001068 0.0001068 0.0001068 0.0001068 0.0001068 0.0001068 0.0001068 0.0001068 
0.000268 0.000268 0.000268 0.000268 0.000268 0.000268 0.000268 0.000268 0.000268 0.000268 0.000268 0.000268 0.000268 0.000268 0.000268 0.000268 0.000268 0.000268 0.000268 0.000268 0.000268 
0.0006336 0.0006336 0.0006336 0.0006336 0.0006336 0.0006336 0.0006336 0.0006336 0.0006336 0.0006336 0.0006336 0.0006336 0.0006336 0.0006336 0.0006336 0.0006336 0.0006336 0.0006336 0.0006336 0.0006336 0.0006336 
0.001411 0.001411 0.001411 0.001411 0.001411 0.001411 0.001411 0.001411 0.001411 0.001411 0.001411 0.001411 0.001411 0.001411 0.001411 0.001411 0.001411 0.001411 0.001411 0.001411 0.001411 
0.002963 0.002963 0.002963 0.002963 0.002963 0.002963 0.002963 0.002963 0.002963 0.002963 0.002963 0.002963 0.002963 0.002963 0.002963 0.002963 0.002963 0.002963 0.002963 0.002963 0.002963 
0.005859 0.005859 0.005859 0.005859 0.005859 0.005859 0.005859 0.005859 0.005859 0.005859 0.005859 0.005859 0.005859 0.005859 0.005859 0.005859 0.005859 0.005859 0.005859 0.005859 0.005859 
0.01092 0.01092 0.01092 0.01092 0.01092 0.01092 0.01092 0.01092 0.01092 0.01092 0.01092 0.01092 0.01092 0.01092 0.01092 0.01092 0.01092 0.01092 0.01092 0.01092 0.01092 
0.01916 0.01916 0.01916 0.01916 0.01916 0.01916 0.01916 0.01916 0.01916 0.01916 0.01916 0.01916 0.01916 0.01916 0.01916 0.01916 0.01916 0.01916 0.01916 0.01916 0.01916 
0.03168 0.03168 0.03168 0.03168 0.03168 0.03168 0.03168 0.03168 0.03168 0.03168 0.03168 0.03168 0.03168 0.03168 0.03168 0.03168 0.03168 0.03168 0.03168 0.03168 0.03168 
0.04932 0.04932 0.04932 0.04932 0.04932 0.04932 0.04932 0.04932 0.04932 0.04932 0.04932 0.04932 0.04932 0.04932 0.04932 0.04932 0.04932 0.04932 0.04932 0.04932 0.04932 
0.07231 0.07231 0.07231 0.07231 0.07231 0.07231 0.07231 0.07231 0.07231 0.07231 0.07231 0.07231 0.07231 0.07231 0.07231 0.07231 0.07231 0.07231 0.07231 0.07231 0.07231 
0.09979 0.09979 0.09979 0.09979 0.09979 0.09979 0.09979 0.09979 0.09979 0.09979 0.09979 0.09979 0.09979 0.09979 0.09979 0.09979 0.09979 0.09979 0.09979 0.09979 0.09979 
0.1296 0.1296 0.1296 0.1296 0.1296 0.1296 0.1296 0.1296 0.1296 0.1296 0.1296 0.1296 0.1296 0.1296 0.1296 0.1296 0.1296 0.1296 0.1296 0.1296 0.1296 
0.1583 0.1583 0.1583 0.1583 0.1583 0.1583 0.1583 0.1583 0.1583 0.1583 0.1583 0.1583 0.1583 0.1583 0.1583 0.1583 0.1583 0.1583 0.1583 0.1583 0.1583 
0.1819 0.1819 0.1819 0.1819 0.1819 0.1819 0.1819 0.1819 0.1819 0.1819 0.1819 0.1819 0.1819 0.1819 0.1819 0.1819 0.1819 0.1819 0.1819 0.1819 0.1819 
0.1965 0.1965 0.1965 0.1965 0.1965 0.1965 0.1965 0.1965 0.1965 0.1965 0.1965 0.1965 0.1965 0.1965 0.1965 0.1965 0.1965 0.1965 0.1965 0.1965 0.1965 
0.1994 0.1994 0.1994 0.1994 0.1994 0.1994 0.1994 0.1994 0.1994 0.1994 0.1994 0.1994 0.1994 0.1994 0.1994 0.1994 0.1994 0.1994 0.1994 0.1994 0.1994 
0.1901 0.1901 0.1901 0.1901 0.1901 0.1901 0.1901 0.1901 0.1901 0.1901 0.1901 0.1901 0.1901 0.1901 0.1901 0.1901 0.1901 0.1901 0.1901 0.1901 0.1901 
0.1701 0.1701 0.1701 0.1701 0.1701 0.1701 0.1701 0.1701 0.1701 0.1701 0.1701 0.1701 0.1701 0.1701 0.1701 0.1701 0.1701 0.1701 0.1701 0.1701 0.1701 
0.1428 0.1428 0.1428 0.1428 0.1428 0.1428 0.1428 0.1428 0.1428 0.1428 0.1428 0.1428 0.1428 0.1428 0.1428 0.1428 0.1428 0.1428 0.1428 0.1428 0.1428 
0.1124 0.1124 0.1124 0.1124 0.1124 0.1124 0.1124 0.1124 0.1124 0.1124 0.1124 0.1124 0.1124 0.1124 0.1124 0.1124 0.1124 0.1124 0.1124 0.1124 0.1124 
0.08287 0.08287 0.08287 0.08287 0.08287 0.08287 0.08287 0.08287 0.08287 0.08287 0.08287 0.08287 0.08287 0.08287 0.08287 0.08287 0.08287 0.08287 0.08287 0.08287 0.08287 
0.05723 0.05723 0.05723 0.05723 0.05723 0.05723 0.05723 0.05723 0.05723 0.05723 0.05723 0.05723 0.05723 0.05723 0.05723 0.05723 0.05723 0.05723 0.05723 0.05723 0.05723 
0.03699 0.03699 0.03699 0.03699 0.03699 0.03699 0.03699 0.03699 0.03699 0.03699 0.03699 0.03699 0.03699 0.03699 0.03699 0.03699 0.03699 0.03699 0.03699 0.03699 0.03699 
0.02235 0.02235 0.02235 0.02235 0.02235 0.02235 0.02235 0.02235 0.02235 0.02235 0.02235 0.02235 0.02235 0.02235 0.02235 0.02235 0.02235 0.02235 0.02235 0.02235 0.02235 
0.01262 0.01262 0.01262 0.01262 0.01262 0.01262 0.01262 0.01262 0.01262 0.01262 0.01262 0.01262 0.01262 0.01262 0.01262 0.01262 0.01262 0.01262 0.01262 0.01262 0.01262 
0.006648 0.006648 0.006648 0.006648 0.006648 0.006648 0.006648 0.006648 0.006648 0.006648 0.006648 0.006648 0.006648 0.006648 0.006648 0.006648 0.006648 0.006648 0.006648 0.006648 0.006648 
0.003267 0.003267 0.003267 0.003267 0.003267 0.003267 0.003267 0.003267 0.003267 0.003267 0.003267 0.003267 0.003267 0.003267 0.003267 0.003267 0.003267 0.003267 0.003267 0.003267 0.003267 
0.001495 0.001495 0.001495 0.001495 0.001495 0.001496 0.001496 0.001496 0.001496 0.001496 0.001495 0.001495 0.001495 0.001495 0.001495 0.001495 0.001495 0.001495 0.001495 0.001495 0.001495 
0.000637 0.000637 0.000637 0.000637 0.0006371 0.0006371 0.0006371 0.0006371 0.0006371 0.0006371 0.0006371 0.0006371 0.0006371 0.0006371 0.0006371 0.000637 0.000637 0.000637 0.000637 0.000637 0.000637 
0.0002522 0.0002522 0.0002522 0.0002522 0.0002522 0.0002523 0.0002523 0.0002523 0.0002523 0.0002523 0.0002523 0.0002523 0.0002523 0.0002523 0.0002523 0.0002523 0.0002523 0.0002522 0.0002522 0.0002522 0.0002522 
9.273e-05 9.272e-05 9.272e-05 9.272e-05 9.273e-05 9.273e-05 9.273e-05 9.273e-05 9.273e-05 9.273e-05 9.274e-05 9.274e-05 9.274e-05 9.274e-05 9.274e-05 9.274e-05 9.273e-05 9.273e-05 9.273e-05 9.273e-05 9.273e-05 
3.161e-05 3.16e-05 3.16e-05 3.16e-05 3.16e-05 3.16e-05 3.16e-05 3.16e-05 3.16e-05 3.161e-05 3.161e-05 3.161e-05 3.161e-05 3.161e-05 3.161e-05 3.161e-05 3.161e-05 3.161e-05 3.161e-05 3.161e-05 3.161e-05 
9.98e-06 9.979e-06 9.979e-06 9.979e-06 9.979e-06 9.979e-06 9.979e-06 9.979e-06 9.979e-06 9.979e-06 9.979e-06 9.979e-06 9.98e-06 9.98e-06 9.98e-06 9.98e-06 9.98e-06 9.98e-06 9.98e-06 9.98e-06 9.98e-06 
2.94e-06 2.94e-06 2.94e-06 2.94e-06 2.94e-06 2.94e-06 2.94e-06 2.94e-06 2.94e-06 2.94e-06 2.94e-06 2.94e-06 2.94e-06 2.94e-06 2.94e-06 2.94e-06 2.94e-06 2.94e-06 2.94e-06 2.94e-06 2.94e-06 
9.035e-07 9.035e-07 9.035e-07 9.035e-07 9.034e-07 9.034e-07 9.034e-07 9.034e-07 9.034e-07 9.034e-07 9.033e-07 9.033e-07 9.034e-07 9.034e-07 9.034e-07 9.034e-07 9.034e-07 9.034e-07 9.035e-07 9.035e-07 9.035e-07 
6.292e-07 6.292e-07 6.292e-07 6.292e-07 6.292e-07 6.292e-07 6.292e-07 6.292e-07 6.291e-07 6.291e-07 6.291e-07 6.291e-07 6.291e-07 6.291e-07 6.291e-07 6.292e-07 6.292e-07 6.292e-07 6.292e-07 6.292e-07 6.292e-07 
1.52e-06 1.52e-06 1.52e-06 1.52e-06 1.52e-06 1.52e-06 1.52e-06 1.52e-06 1.52e-06 1.52e-06 1.52e-06 1.52e-06 1.52e-06 1.52e-06 1.52e-06 1.52e-06 1.52e-06 1.52e-06 1.52e-06 1.52e-06 1.52e-06 
4.722e-06 4.722e-06 4.722e-06 4.722e-06 4.722e-06 4.722e-06 4.722e-06 4.722e-06 4.722e-06 4.722e-06 4.722e-06 4.722e-06 4.722e-06 4.722e-06 4.722e-06 4.722e-06 4.722e-06 4.722e-06 4.722e-06 4.722e-06 4.722e-06 
</DataArray>
<DataArray Name="E" NumberOfComponents="1" format="ascii" type="Float64">
-1.452 -1.452 -1.452 -1.452 -1.452 -1.452 -1.452 -1.452 -1.452 -1.452 -1.452 -1.452 -1.452 -1.452 -1.452 -1.452 -1.452 -1.452 -1.452 -1.452 -1.452 
-1.452 -1.452 -1.452 -1.452 -1.452 -1.452 -1.452 -1.452 -1.452 -1.452 -1.452 -1.452 -1.452 -1.452 -1.452 -1.452 -1.452 -1.452 -1.452 -1.452 -1.452 
-1.452 -1.452 -1.452 -1.452 -1.452 -1.452 -1.452 -1.452 -1.452 -1.452 -1.452 -1.452 -1.452 -1.452 -1.452 -1.452 -1.452 -1.452 -1.452 -1.452 -1.452 
-1.452 -1.452 -1.452 -1.452 -1.452 -1.452 -1.452 -1.452 -1.452 -1.452 -1.452 -1.452 -1.452 -1.452 -1.452 -1.452 -1.452 -1.452 -1.452 -1.452 -1.452 
-1.452 -1.452 -1.452 -1.452 -1.452 -1.452 -1.452 -1.452 -1.452 -1.452 -1.452 -1.452 -1.452 -1.452 -1.452 -1.452 -1.452 -1.452 -1.452 -1.452 -1.452 
-1.452 -1.452 -1.452 -1.452 -1.452 -1.452 -1.452 -1.452 -1.452 -1.452 -1.452 -1.452 -1.452 -1.452 -1.452 -1.452 -1.452 -1.452 -1.452 -1.452 -1.452 
-1.452 -1.452 -1.452 -1.452 -1.452 -1.452 -1.452 -1.452 -1.452 -1.452 -1.452 -1.452 -1.452 -1.452 -1.452 -1.452 -1.452 -1.452 -1.452 -1.452 -1.452 
-1.452 -1.452 -1.452 -1.452 -1.452 -1.452 -1.452 -1.452 -1.452 -1.452 -1.452 -1.452 -1.452 -1.452 -1.452 -1.452 -1.452 -1.452 -1.452 -1.452 -1.452 
-1.452 -1.452 -1.452 -1.452 -1.452 -1.452 -1.452 -1.452 -1.452 -1.452 -1.452 -1.452 -1.452 -1.452 -1.452 -1.452 -1.452 -1.452 -1.452 -1.452 -1.452 
-1.452 -1.452 -1.452 -1.452 -1.452 -1.452 -1.452 -1.452 -1.452 -1.452 -1.452 -1.452 -1.452 -1.452 -1.452 -1.452 -1.452 -1.452 -1.452 -1.452 -1.452 
-1.452 -1.452 -1.452 -1.452 -1.452 -1.452 -1.452 -1.452 -1.452 -1.452 -1.452 -1.452 -1.452 -1.452 -1.452 -1.452 -1.452 -1.452 -1.452 -1.452 -1.452 
-1.452 -1.452 -1.452 -1.452 -1.452 -1.452 -1.452 -1.452 -1.452 -1.452 -1.452 -1.452 -1.452 -1.452 -1.452 -1.452 -1.452 -1.452 -1.452 -1.452 -1.452 
-1.452 -1.452 -1.452 -1.452 -1.452 -1.452 -1.452 -1.452 -1.452 -1.452 -1.452 -1.452 -1.452 -1.452 -1.452 -1.452 -1.452 -1.452 -1.452 -1.452 -1.452 
-1.452 -1.452 -1.452 -1.452 -1.452 -1.452 -1.452 -1.452 -1.452 -1.452 -1.452 -1.452 -1.452 -1.452 -1.452 -1.452 -1.452 -1.452 -1.452 -1.452 -1.452 
-1.452 -1.452 -1.452 -1.452 -1.452 -1.452 -1.452 -1.452 -1.452 -1.452 -1.452 -1.452 -1.452 -1.452 -1.452 -1.452 -1.452 -1.452 -1.452 -1.452 -1.452 
-1.452 -1.452 -1.452 -1.452 -1.452 -1.452 -1.452 -1.452 -1.452 -1.452 -1.452 -1.452 -1.452 -1.452 -1.452 -1.452 -1.452 -1.452 -1.452 -1.452 -1.452 
-1.452 -1.452 -1.452 -1.452 -1.452 -1.452 -1.452 -1.452 -1.452 -1.452 -1.452 -1.452 -1.452 -1.452 -1.452 -1.452 -1.452 -1.452 -1.452 -1.452 -1.452 
-1.452 -1.452 -1.452 -1.452 -1.452 -1.452 -1.452 -1.452 -1.452 -1.452 -1.452 -1.452 -1.452 -1.452 -1.452 -1.452 -1.452 -1.452 -1.452 -1.452 -1.452 
-1.452 -1.452 -1.452 -1.452 -1.452 -1.452 -1.452 -1.452 -1.452 -1.452 -1.452 -1.452 -1.452 -1.452 -1.452 -1.452 -1.452 -1.452 -1.452 -1.452 -1.452 
-1.452 -1.452 -1.452 -1.452 -1.452 -1.452 -1.452 -1.452 -1.452 -1.452 -1.452 -1.452 -1.452 -1.452 -1.452 -1.452 -1.452 -1.452 -1.452 -1.452 -1.452 
-1.452 -1.452 -1.452 -1.452 -1.452 -1.452 -1.452 -1.452 -1.452 -1.452 -1.452 -1.452 -1.452 -1.452 -1.452 -1.452 -1.452 -1.452 -1.452 -1.452 -1.452 
-1.452 -1.452 -1.452 -1.452 -1.452 -1.452 -1.452 -1.452 -1.452 -1.452 -1.452 -1.452 -1.452 -1.452 -1.452 -1.452 -1.452 -1.452 -1.452 -1.452 -1.452 
-1.452 -1.452 -1.452 -1.452 -1.452 -1.452 -1.452 -1.452 -1.452 -1.452 -1.452 -1.452 -1.452 -1.452 -1.452 -1.452 -1.452 -1.452 -1.452 -1.452 -1.452 
-1.452 -1.452 -1.452 -1.452 -1.452 -1.452 -1.452 -1.452 -1.452 -1.452 -1.452 -1.452 -1.452 -1.452 -1.452 -1.452 -1.452 -1.452 -1.452 -1.452 -1.452 
-1.452 -1.452 -1.452 -1.452 -1.452 -1.452 -1.452 -1.452 -1.452 -1.452 -1.452 -1.452 -1.452 -1.452 -1.452 -1.452 -1.452 -1.452 -1.452 -1.452 -1.452 
-1.452 -1.452 -1.452 -1.452 -1.452 -1.452 -1.452 -1.452 -1.452 -1.452 -1.452 -1.452 -1.452 -1.452 -1.452 -1.452 -1.452 -1.452 -1.452 -1.452 -1.452 
-1.452 -1.452 -1.452 -1.452 -1.452 -1.452 -1.452 -1.452 -1.452 -1.452 -1.452 -1.452 -1.452 -1.452 -1.452 -1.452 -1.452 -1.452 -1.452 -1.452 -1.452 
-1.452 -1.452 -1.452 -1.452 -1.452 -1.452 -1.452 -1.452 -1.452 -1.452 -1.452 -1.452 -1.452 -1.452 -1.452 -1.452 -1.452 -1.452 -1.452 -1.452 -1.452 
-1.452 -1.452 -1.452 -1.452 -1.452 -1.452 -1.452 -1.452 -1.452 -1.452 -1.452 -1.452 -1.452 -1.452 -1.452 -1.452 -1.452 -1.452 -1.452 -1.452 -1.452 
-1.452 -1.452 -1.452 -1.452 -1.452 -1.452 -1.452 -1.452 -1.452 -1.452 -1.452 -1.452 -1.452 -1.452 -1.452 -1.452 -1.452 -1.452 -1.452 -1.452 -1.452 
-1.452 -1.452 -1.452 -1.452 -1.452 -1.452 -1.452 -1.452 -1.452 -1.452 -1.452 -1.452 -1.452 -1.452 -1.452 -1.452 -1.452 -1.452 -1.452 -1.452 -1.452 
-1.452 -1.452 -1.452 -1.452 -1.452 -1.452 -1.452 -1.452 -1.452 -1.452 -1.452 -1.452 -1.452 -1.452 -1.452 -1.452 -1.452 -1.452 -1.452 -1.452 -1.452 
-1.452 -1.452 -1.452 -1.452 -1.452 -1.452 -1.452 -1.452 -1.452 -1.452 -1.452 -1.452 -1.452 -1.452 -1.452 -1.452 -1.452 -1.452 -1.452 -1.452 -1.452 
-1.452 -1.452 -1.452 -1.452 -1.452 -1.452 -1.452 -1.452 -1.452 -1.452 -1.452 -1.452 -1.452 -1.452 -1.452 -1.452 -1.452 -1.452 -1.452 -1.452 -1.452 
-1.452 -1.452 -1.452 -1.452 -1.452 -1.452 -1.452 -1.452 -1.452 -1.452 -1.452 -1.452 -1.452 -1.452 -1.452 -1.452 -1.452 -1.452 -1.452 -1.452 -1.452 
-1.452 -1.452 -1.452 -1.452 -1.452 -1.452 -1.452 -1.452 -1.452 -1.452 -1.452 -1.452 -1.452 -1.452 -1.452 -1.452 -1.452 -1.452 -1.452 -1.452 -1.452 
-1.452 -1.452 -1.452 -1.452 -1.452 -1.452 -1.452 -1.452 -1.452 -1.452 -1.452 -1.452 -1.452 -1.452 -1.452 -1.452 -1.452 -1.452 -1.452 -1.452 -1.452 
-1.452 -1.452 -1.452 -1.452 -1.452 -1.452 -1.452 -1.452 -1.452 -1.452 -1.452 -1.452 -1.452 -1.452 -1.452 -1.452 -1.452 -1.452 -1.452 -1.452 -1.452 
-1.452 -1.452 -1.452 -1.452 -1.452 -1.452 -1.452 -1.452 -1.452 -1.452 -1.452 -1.452 -1.452 -1.452 -1.452 -1.452 -1.452 -1.452 -1.452 -1.452 -1.452 
-1.452 -1.452 -1.452 -1.452 -1.452 -1.452 -1.452 -1.452 -1.452 -1.452 -1.452 -1.452 -1.452 -1.452 -1.452 -1.452 -1.452 -1.452 -1.452 -1.452 -1.452 
-1.452 -1.452 -1.452 -1.452 -1.452 -1.452 -1.452 -1.452 -1.452 -1.452 -1.452 -1.452 -1.452 -1.452 -1.452 -1.452 -1.452 -1.452 -1.452 -1.452 -1.452 
</DataArray>
<DataArray Name="ne" NumberOfComponents="1" format="ascii" type="Float64">
1 1 1 1 1 1 1 1 1 1 1 1 1 1 1 1 1 1 1 1 1 
1 1 1 1 1 1 1 1 1 1 1 1 1 1 1 1 1 1 1 1 1 
1 1 1 1 1 1 1 1 1 1 1 1 1 1 1 1 1 1 1 1 1 
1 1 1 1 1 1 1 1 1 1 1 1 1 1 1 1 1 1 1 1 1 
1 1 1 1 1 1 1 1 1 1 1 1 1 1 1 1 1 1 1 1 1 
1 1 1 1 1 1 1 1 1 1 1 1 1 1 1 1 1 1 1 1 1 
1 1 1 1 1 1 1 1 1 1 1 1 1 1 1 1 1 1 1 1 1 
1 1 1 1 1 1 1 1 1 1 1 1 1 1 1 1 1 1 1 1 1 
1 1 1 1 1 1 1 1 1 1 1 1 1 1 1 1 1 1 1 1 1 
1 1 1 1 1 1 1 1 1 1 1 1 1 1 1 1 1 1 1 1 1 
1 1 1 1 1 1 1 1 1 1 1 1 1 1 1 1 1 1 1 1 1 
1 1 1 1 1 1 1 1 1 1 1 1 1 1 1 1 1 1 1 1 1 
1 1 1 1 1 1 1 1 1 1 1 1 1 1 1 1 1 1 1 1 1 
1 1 1 1 1 1 1 1 1 1 1 1 1 1 1 1 1 1 1 1 1 
1 1 1 1 1 1 1 1 1 1 1 1 1 1 1 1 1 1 1 1 1 
1 1 1 1 1 1 1 1 1 1 1 1 1 1 1 1 1 1 1 1 1 
1 1 1 1 1 1 1 1 1 1 1 1 1 1 1 1 1 1 1 1 1 
1 1 1 1 1 1 1 1 1 1 1 1 1 1 1 1 1 1 1 1 1 
1 1 1 1 1 1 1 1 1 1 1 1 1 1 1 1 1 1 1 1 1 
1 1 1 1 1 1 1 1 1 1 1 1 1 1 1 1 1 1 1 1 1 
1 1 1 1 1 1 1 1 1 1 1 1 1 1 1 1 1 1 1 1 1 
1 1 1 1 1 1 1 1 1 1 1 1 1 1 1 1 1 1 1 1 1 
1 1 1 1 1 1 1 1 1 1 1 1 1 1 1 1 1 1 1 1 1 
1 1 1 1 1 1 1 1 1 1 1 1 1 1 1 1 1 1 1 1 1 
1 1 1 1 1 1 1 1 1 1 1 1 1 1 1 1 1 1 1 1 1 
1 1 1 1 1 1 1 1 1 1 1 1 1 1 1 1 1 1 1 1 1 
1 1 1 1 1 1 1 1 1 1 1 1 1 1 1 1 1 1 1 1 1 
1 1 1 1 1 1 1 1 1 1 1 1 1 1 1 1 1 1 1 1 1 
1 1 1 1 1 1 1 1 1 1 1 1 1 1 1 1 1 1 1 1 1 
1 1 1 1 1 1 1 1 1 1 1 1 1 1 1 1 1 1 1 1 1 
1 1 1 1 1 1 1 1 1 1 1 1 1 1 1 1 1 1 1 1 1 
1 1 1 1 1 1 1 1 1 1 1 1 1 1 1 1 1 1 1 1 1 
1 1 1 1 1 1 1 1 1 1 1 1 1 1 1 1 1 1 1 1 1 
1 1 1 1 1 1 1 1 1 1 1 1 1 1 1 1 1 1 1 1 1 
1 1 1 1 1 1 1 1 1 1 1 1 1 1 1 1 1 1 1 1 1 
1 1 1 1 1 1 1 1 1 1 1 1 1 1 1 1 1 1 1 1 1 
1 1 1 1 1 1 1 1 1 1 1 1 1 1 1 1 1 1 1 1 1 
1 1 1 1 1 1 1 1 1 1 1 1 1 1 1 1 1 1 1 1 1 
1 1 1 1 1 1 1 1 1 1 1 1 1 1 1 1 1 1 1 1 1 
1 1 1 1 1 1 1 1 1 1 1 1 1 1 1 1 1 1 1 1 1 
1 1 1 1 1 1 1 1 1 1 1 1 1 1 1 1 1 1 1 1 1 
</DataArray>
</PointData>
</Piece>
</ImageData>
</VTKFile>
