<VTKFile type="ImageData">
<ImageData Origin="0 -10 0" Spacing="0.5 0.5 1" WholeExtent="0 20 0 40 0 0">
<Piece Extent="0 20 0 40 0 0">
<PointData>
<DataArray Name="f" NumberOfComponents="1" format="ascii" type="Float64">
0.001802 0.001802 0.001802 0.001802 0.001802 0.001802 0.001802 0.001802 0.001802 0.001802 0.001802 0.001802 0.001802 0.001802 0.001802 0.001802 0.001802 0.001802 0.001802 0.001802 0.001802 
0.004107 0.004107 0.004107 0.004107 0.004107 0.004107 0.004107 0.004107 0.004107 0.004107 0.004107 0.004107 0.004107 0.004107 0.004107 0.004107 0.004107 0.004107 0.004107 0.004107 0.004107 
0.008705 0.008705 0.008705 0.008705 0.008705 0.008705 0.008705 0.008705 0.008705 0.008705 0.008705 0.008705 0.008705 0.008705 0.008705 0.008705 0.008705 0.008705 0.008705 0.008705 0.008705 
0.01714 0.01714 0.01714 0.01714 0.01714 0.01714 0.01714 0.01714 0.01714 0.01714 0.01714 0.01714 0.01714 0.01714 0.01714 0.01714 0.01714 0.01714 0.01714 0.01714 0.01714 
0.03133 0.03133 0.03133 0.03133 0.03133 0.03133 0.03133 0.03133 0.03133 0.03133 0.03133 0.03133 0.03133 0.03133 0.03133 0.03133 0.03133 0.03133 0.03133 0.03133 0.03133 
0.0531 0.0531 0.0531 0.0531 0.0531 0.0531 0.0531 0.0531 0.0531 0.0531 0.0531 0.0531 0.0531 0.0531 0.0531 0.0531 0.0531 0.0531 0.0531 0.0531 0.0531 
0.08334 0.08334 0.08334 0.08334 0.08334 0.08334 0.08334 0.08334 0.08334 0.08334 0.08334 0.08334 0.08334 0.08334 0.08334 0.08334 0.08334 0.08334 0.08334 0.08334 0.08334 
0.121 0.121 0.121 0.121 0.121 0.121 0.121 0.121 0.121 0.121 0.121 0.121 0.121 0.121 0.121 0.121 0.121 0.121 0.121 0.121 0.121 
0.1621 0.1621 0.1621 0.1621 0.1621 0.1621 0.1621 0.1621 0.1621 0.1621 0.1621 0.1621 0.1621 0.1621 0.1621 0.1621 0.1621 0.1621 0.1621 0.1621 0.1621 
0.2002 0.2002 0.2002 0.2002 0.2002 0.2002 0.2002 0.2002 0.2002 0.2002 0.2002 0.2002 0.2002 0.2002 0.2002 0.2002 0.2002 0.2002 0.2002 0.2002 0.2002 
0.2275 0.2275 0.2275 0.2275 0.2275 0.2275 0.2275 0.2275 0.2275 0.2275 0.2275 0.2275 0.2275 0.2275 0.2275 0.2275 0.2275 0.2275 0.2275 0.2275 0.2275 
0.2373 0.2373 0.2373 0.2373 0.2373 0.2373 0.2373 0.2373 0.2373 0.2373 0.2373 0.2373 0.2373 0.2373 0.2373 0.2373 0.2373 0.2373 0.2373 0.2373 0.2373 
0.2266 0.2266 0.2266 0.2266 0.2266 0.2266 0.2266 0.2266 0.2266 0.2266 0.2266 0.2266 0.2266 0.2266 0.2266 0.2266 0.2266 0.2266 0.2266 0.2266 0.2266 
0.1976 0.1976 0.1976 0.1976 0.1976 0.1976 0.1976 0.1976 0.1976 0.1976 0.1976 0.1976 0.1976 0.1976 0.1976 0.1976 0.1976 0.1976 0.1976 0.1976 0.1976 
0.1569 0.1569 0.1569 0.1569 0.1569 0.1569 0.1569 0.1569 0.1569 0.1569 0.1569 0.1569 0.1569 0.1569 0.1569 0.1569 0.1569 0.1569 0.1569 0.1569 0.1569 
0.113 0.113 0.113 0.113 0.113 0.113 0.113 0.113 0.113 0.113 0.113 0.113 0.113 0.113 0.113 0.113 0.113 0.113 0.113 0.113 0.113 
0.07365 0.07365 0.07365 0.07365 0.07365 0.07365 0.07365 0.07365 0.07365 0.07365 0.07365 0.07365 0.07365 0.07365 0.07365 0.07365 0.07365 0.07365 0.07365 0.07365 0.07365 
0.04323 0.04323 0.04323 0.04323 0.04323 0.04323 0.04323 0.04323 0.04323 0.04323 0.04323 0.04323 0.04323 0.04323 0.04323 0.04323 0.04323 0.04323 0.04323 0.04323 0.04323 
0.02276 0.02276 0.02276 0.02276 0.02276 0.02276 0.02277 0.02277 0.02277 0.02277 0.02277 0.02277 0.02277 0.02277 0.02277 0.02277 0.02277 0.02277 0.02277 0.02277 0.02276 
0.01071 0.0107 0.0107 0.0107 0.0107 0.0107 0.0107 0.01071 0.01071 0.01071 0.01071 0.01071 0.01071 0.01071 0.01071 0.01071 0.01071 0.01071 0.01071 0.01071 0.01071 
0.004474 0.004473 0.004473 0.004473 0.004473 0.004473 0.004473 0.004473 0.004473 0.004473 0.004474 0.004474 0.004474 0.004474 0.004474 0.004474 0.004474 0.004474 0.004474 0.004474 0.004474 
0.001653 0.001652 0.001652 0.001652 0.001653 0.001653 0.001653 0.001653 0.001653 0.001653 0.001653 0.001653 0.001653 0.001653 0.001653 0.001653 0.001653 0.001653 0.001653 0.001653 0.001653 
0.0005368 0.0005368 0.0005367 0.0005367 0.0005367 0.0005367 0.0005368 0.0005368 0.0005368 0.0005368 0.0005368 0.0005368 0.0005368 0.0005368 0.0005368 0.0005368 0.0005368 0.0005368 0.0005369 0.0005369 0.0005368 
0.0001524 0.0001524 0.0001524 0.0001524 0.0001524 0.0001524 0.0001524 0.0001524 0.0001524 0.0001524 0.0001524 0.0001524 0.0001524 0.0001524 0.0001524 0.0001524 0.0001524 0.0001524 0.0001524 0.0001524 0.0001524 
3.762e-05 3.761e-05 3.761e-05 3.761e-05 3.761e-05 3.761e-05 3.761e-05 3.761e-05 3.761e-05 3.761e-05 3.761e-05 3.761e-05 3.761e-05 3.761e-05 3.761e-05 3.761e-05 3.762e-05 3.762e-05 3.762e-05 3.762e-05 3.762e-05 
8.019e-06 8.018e-06 8.017e-06 8.017e-06 8.017e-06 8.017e-06 8.017e-06 8.017e-06 8.017e-06 8.018e-06 8.018e-06 8.018e-06 8.018e-06 8.018e-06 8.018e-06 8.019e-06 8.019e-06 8.019e-06 8.019e-06 8.02e-06 8.019e-06 
1.468e-06 1.468e-06 1.468e-06 1.468e-06 1.468e-06 1.468e-06 1.468e-06 1.468e-06 1.468e-06 1.468e-06 1.468e-06 1.468e-06 1.468e-06 1.468e-06 1.468e-06 1.468e-06 1.468e-06 1.468e-06 1.468e-06 1.468e-06 1.468e-06 
2.295e-07 2.294e-07 2.294e-07 2.294e-07 2.294e-07 2.294e-07 2.294e-07 2.294e-07 2.294e-07 2.294e-07 2.294e-07 2.294e-07 2.294e-07 2.294e-07 2.294e-07 2.294e-07 2.294e-07 2.294e-07 2.294e-07 2.295e-07 2.295e-07 
3.05e-08 3.05e-08 3.049e-08 3.049e-08 3.049e-08 3.049e-08 3.049e-08 3.049e-08 3.049e-08 3.049e-08 3.049e-08 3.049e-08 3.049e-08 3.049e-08 3.05e-08 3.05e-08 3.05e-08 3.05e-08 3.05e-08 3.05e-08 3.05e-08 
3.758e-09 3.758e-09 3.757e-09 3.757e-09 3.757e-09 3.757e-09 3.757e-09 3.757e-09 3.757e-09 3.757e-09 3.757e-09 3.757e-09 3.757e-09 3.758e-09 3.758e-09 3.758e-09 3.758e-09 3.758e-09 3.758e-09 3.758e-09 3.758e-09 
2.196e-09 2.196e-09 2.196e-09 2.196e-09 2.196e-09 2.196e-09 2.196e-09 2.196e-09 2.196e-09 2.196e-09 2.196e-09 2.196e-09 2.196e-09 2.196e-09 2.196e-09 2.196e-09 2.196e-09 2.196e-09 2.196e-09 2.196e-09 2.196e-09 
9.407e-09 9.407e-09 9.407e-09 9.407e-09 9.407e-09 9.408e-09 9.408e-09 9.408e-09 9.409e-09 9.409e-09 9.409e-09 9.409e-09 9.409e-09 9.409e-09 9.408e-09 9.408e-09 9.408e-09 9.408e-09 9.408e-09 9.407e-09 9.407e-09 
4.365e-08 4.365e-08 4.365e-08 4.365e-08 4.365e-08 4.365e-08 4.365e-08 4.366e-08 4.366e-08 4.366e-08 4.366e-08 4.366e-08 4.366e-08 4.366e-08 4.366e-08 4.366e-08 4.366e-08 4.365e-08 4.365e-08 4.365e-08 4.365e-08 
1.89e-07 1.89e-07 1.89e-07 1.89e-07 1.89e-07 1.89e-07 1.89e-07 1.89e-07 1.89e-07 1.89e-07 1.89e-07 1.89e-07 1.89e-07 1.89e-07 1.89e-07 1.89e-07 1.89e-07 1.89e-07 1.89e-07 1.89e-07 1.89e-07 
7.617e-07 7.617e-07 7.617e-07 7.617e-07 7.617e-07 7.617e-07 7.617e-07 7.617e-07 7.617e-07 7.618e-07 7.618e-07 7.618e-07 7.618e-07 7.618e-07 7.618e-07 7.618e-07 7.617e-07 7.617e-07 7.617e-07 7.617e-07 7.617e-07 
2.859e-06 2.859e-06 2.859e-06 2.859e-06 2.859e-06 2.859e-06 2.859e-06 2.859e-06 2.859e-06 2.859e-06 2.859e-06 2.859e-06 2.859e-06 2.859e-06 2.859e-06 2.859e-06 2.859e-06 2.859e-06 2.859e-06 2.859e-06 2.859e-06 
9.997e-06 9.997e-06 9.997e-06 9.997e-06 9.997e-06 9.997e-06 9.997e-06 9.998e-06 9.998e-06 9.998e-06 9.998e-06 9.998e-06 9.998e-06 9.998e-06 9.998e-06 9.998e-06 9.998e-06 9.998e-06 9.998e-06 9.998e-06 9.997e-06 
3.257e-05 3.257e-05 3.257e-05 3.257e-05 3.257e-05 3.257e-05 3.257e-05 3.257e-05 3.257e-05 3.257e-05 3.257e-05 3.257e-05 3.257e-05 3.257e-05 3.257e-05 3.257e-05 3.257e-05 3.257e-05 3.257e-05 3.257e-05 3.257e-05 
9.883e-05 9.883e-05 9.883e-05 9.883e-05 9.883e-05 9.883e-05 9.883e-05 9.883e-05 9.883e-05 9.883e-05 9.883e-05 9.883e-05 9.883e-05 9.883e-05 9.883e-05 9.883e-05 9.883e-05 9.883e-05 9.883e-05 9.883e-05 9.883e-05 
0.0002793 0.0002793 0.0002793 0.0002793 0.0002793 0.0002793 0.0002793 0.0002793 0.0002793 0.0002793 0.0002794 0.0002794 0.0002794 0.0002794 0.0002794 0.0002794 0.0002794 0.0002794 0.0002794 0.0002794 0.0002793 
0.0007353 0.0007353 0.0007353 0.0007353 0.0007353 0.0007353 0.0007353 0.0007353 0.0007353 0.0007353 0.0007353 0.0007353 0.0007353 0.0007353 0.0007353 0.0007353 0.0007353 0.0007353 0.0007353 0.0007353 0.0007353 
</DataArray>
<DataArray Name="E" NumberOfComponents="1" format="ascii" type="Float64">
-0.4071 -0.4071 -0.4071 -0.4071 -0.4071 -0.4071 -0.4072 -0.4072 -0.4072 -0.4072 -0.4072 -0.4072 -0.4072 -0.4072 -0.4072 -0.4072 -0.4072 -0.4072 -0.4072 -0.4072 -0.4073 
-0.4071 -0.4071 -0.4071 -0.4071 -0.4071 -0.4071 -0.4072 -0.4072 -0.4072 -0.4072 -0.4072 -0.4072 -0.4072 -0.4072 -0.4072 -0.4072 -0.4072 -0.4072 -0.4072 -0.4072 -0.4073 
-0.4071 -0.4071 -0.4071 -0.4071 -0.4071 -0.4071 -0.4072 -0.4072 -0.4072 -0.4072 -0.4072 -0.4072 -0.4072 -0.4072 -0.4072 -0.4072 -0.4072 -0.4072 -0.4072 -0.4072 -0.4073 
-0.4071 -0.4071 -0.4071 -0.4071 -0.4071 -0.4071 -0.4072 -0.4072 -0.4072 -0.4072 -0.4072 -0.4072 -0.4072 -0.4072 -0.4072 -0.4072 -0.4072 -0.4072 -0.4072 -0.4072 -0.4073 
-0.4071 -0.4071 -0.4071 -0.4071 -0.4071 -0.4071 -0.4072 -0.4072 -0.4072 -0.4072 -0.4072 -0.4072 -0.4072 -0.4072 -0.4072 -0.4072 -0.4072 -0.4072 -0.4072 -0.4072 -0.4073 
-0.4071 -0.4071 -0.4071 -0.4071 -0.4071 -0.4071 -0.4072 -0.4072 -0.4072 -0.4072 -0.4072 -0.4072 -0.4072 -0.4072 -0.4072 -0.4072 -0.4072 -0.4072 -0.4072 -0.4072 -0.4073 
-0.4071 -0.4071 -0.4071 -0.4071 -0.4071 -0.4071 -0.4072 -0.4072 -0.4072 -0.4072 -0.4072 -0.4072 -0.4072 -0.4072 -0.4072 -0.4072 -0.4072 -0.4072 -0.4072 -0.4072 -0.4073 
-0.4071 -0.4071 -0.4071 -0.4071 -0.4071 -0.4071 -0.4072 -0.4072 -0.4072 -0.4072 -0.4072 -0.4072 -0.4072 -0.4072 -0.4072 -0.4072 -0.4072 -0.4072 -0.4072 -0.4072 -0.4073 
-0.4071 -0.4071 -0.4071 -0.4071 -0.4071 -0.4071 -0.4072 -0.4072 -0.4072 -0.4072 -0.4072 -0.4072 -0.4072 -0.4072 -0.4072 -0.4072 -0.4072 -0.4072 -0.4072 -0.4072 -0.4073 
-0.4071 -0.4071 -0.4071 -0.4071 -0.4071 -0.4071 -0.4072 -0.4072 -0.4072 -0.4072 -0.4072 -0.4072 -0.4072 -0.4072 -0.4072 -0.4072 -0.4072 -0.4072 -0.4072 -0.4072 -0.4073 
-0.4071 -0.4071 -0.4071 -0.4071 -0.4071 -0.4071 -0.4072 -0.4072 -0.4072 -0.4072 -0.4072 -0.4072 -0.4072 -0.4072 -0.4072 -0.4072 -0.4072 -0.4072 -0.4072 -0.4072 -0.4073 
-0.4071 -0.4071 -0.4071 -0.4071 -0.4071 -0.4071 -0.4072 -0.4072 -0.4072 -0.4072 -0.4072 -0.4072 -0.4072 -0.4072 -0.4072 -0.4072 -0.4072 -0.4072 -0.4072 -0.4072 -0.4073 
-0.4071 -0.4071 -0.4071 -0.4071 -0.4071 -0.4071 -0.4072 -0.4072 -0.4072 -0.4072 -0.4072 -0.4072 -0.4072 -0.4072 -0.4072 -0.4072 -0.4072 -0.4072 -0.4072 -0.4072 -0.4073 
-0.4071 -0.4071 -0.4071 -0.4071 -0.4071 -0.4071 -0.4072 -0.4072 -0.4072 -0.4072 -0.4072 -0.4072 -0.4072 -0.4072 -0.4072 -0.4072 -0.4072 -0.4072 -0.4072 -0.4072 -0.4073 
-0.4071 -0.4071 -0.4071 -0.4071 -0.4071 -0.4071 -0.4072 -0.4072 -0.4072 -0.4072 -0.4072 -0.4072 -0.4072 -0.4072 -0.4072 -0.4072 -0.4072 -0.4072 -0.4072 -0.4072 -0.4073 
-0.4071 -0.4071 -0.4071 -0.4071 -0.4071 -0.4071 -0.4072 -0.4072 -0.4072 -0.4072 -0.4072 -0.4072 -0.4072 -0.4072 -0.4072 -0.4072 -0.4072 -0.4072 -0.4072 -0.4072 -0.4073 
-0.4071 -0.4071 -0.4071 -0.4071 -0.4071 -0.4071 -0.4072 -0.4072 -0.4072 -0.4072 -0.4072 -0.4072 -0.4072 -0.4072 -0.4072 -0.4072 -0.4072 -0.4072 -0.4072 -0.4072 -0.4073 
-0.4071 -0.4071 -0.4071 -0.4071 -0.4071 -0.4071 -0.4072 -0.4072 -0.4072 -0.4072 -0.4072 -0.4072 -0.4072 -0.4072 -0.4072 -0.4072 -0.4072 -0.4072 -0.4072 -0.4072 -0.4073 
-0.4071 -0.4071 -0.4071 -0.4071 -0.4071 -0.4071 -0.4072 -0.4072 -0.4072 -0.4072 -0.4072 -0.4072 -0.4072 -0.4072 -0.4072 -0.4072 -0.4072 -0.4072 -0.4072 -0.4072 -0.4073 
-0.4071 -0.4071 -0.4071 -0.4071 -0.4071 -0.4071 -0.4072 -0.4072 -0.4072 -0.4072 -0.4072 -0.4072 -0.4072 -0.4072 -0.4072 -0.4072 -0.4072 -0.4072 -0.4072 -0.4072 -0.4073 
-0.4071 -0.4071 -0.4071 -0.4071 -0.4071 -0.4071 -0.4072 -0.4072 -0.4072 -0.4072 -0.4072 -0.4072 -0.4072 -0.4072 -0.4072 -0.4072 -0.4072 -0.4072 -0.4072 -0.4072 -0.4073 
-0.4071 -0.4071 -0.4071 -0.4071 -0.4071 -0.4071 -0.4072 -0.4072 -0.4072 -0.4072 -0.4072 -0.4072 -0.4072 -0.4072 -0.4072 -0.4072 -0.4072 -0.4072 -0.4072 -0.4072 -0.4073 
-0.4071 -0.4071 -0.4071 -0.4071 -0.4071 -0.4071 -0.4072 -0.4072 -0.4072 -0.4072 -0.4072 -0.4072 -0.4072 -0.4072 -0.4072 -0.4072 -0.4072 -0.4072 -0.4072 -0.4072 -0.4073 
-0.4071 -0.4071 -0.4071 -0.4071 -0.4071 -0.4071 -0.4072 -0.4072 -0.4072 -0.4072 -0.4072 -0.4072 -0.4072 -0.4072 -0.4072 -0.4072 -0.4072 -0.4072 -0.4072 -0.4072 -0.4073 
-0.4071 -0.4071 -0.4071 -0.4071 -0.4071 -0.4071 -0.4072 -0.4072 -0.4072 -0.4072 -0.4072 -0.4072 -0.4072 -0.4072 -0.4072 -0.4072 -0.4072 -0.4072 -0.4072 -0.4072 -0.4073 
-0.4071 -0.4071 -0.4071 -0.4071 -0.4071 -0.4071 -0.4072 -0.4072 -0.4072 -0.4072 -0.4072 -0.4072 -0.4072 -0.4072 -0.4072 -0.4072 -0.4072 -0.4072 -0.4072 -0.4072 -0.4073 
-0.4071 -0.4071 -0.4071 -0.4071 -0.4071 -0.4071 -0.4072 -0.4072 -0.4072 -0.4072 -0.4072 -0.4072 -0.4072 -0.4072 -0.4072 -0.4072 -0.4072 -0.4072 -0.4072 -0.4072 -0.4073 
-0.4071 -0.4071 -0.4071 -0.4071 -0.4071 -0.4071 -0.4072 -0.4072 -0.4072 -0.4072 -0.4072 -0.4072 -0.4072 -0.4072 -0.4072 -0.4072 -0.4072 -0.4072 -0.4072 -0.4072 -0.4073 
-0.4071 -0.4071 -0.4071 -0.4071 -0.4071 -0.4071 -0.4072 -0.4072 -0.4072 -0.4072 -0.4072 -0.4072 -0.4072 -0.4072 -0.4072 -0.4072 -0.4072 -0.4072 -0.4072 -0.4072 -0.4073 
-0.4071 -0.4071 -0.4071 -0.4071 -0.4071 -0.4071 -0.4072 -0.4072 -0.4072 -0.4072 -0.4072 -0.4072 -0.4072 -0.4072 -0.4072 -0.4072 -0.4072 -0.4072 -0.4072 -0.4072 -0.4073 
-0.4071 -0.4071 -0.4071 -0.4071 -0.4071 -0.4071 -0.4072 -0.4072 -0.4072 -0.4072 -0.4072 -0.4072 -0.4072 -0.4072 -0.4072 -0.4072 -0.4072 -0.4072 -0.4072 -0.4072 -0.4073 
-0.4071 -0.4071 -0.4071 -0.4071 -0.4071 -0.4071 -0.4072 -0.4072 -0.4072 -0.4072 -0.4072 -0.4072 -0.4072 -0.4072 -0.4072 -0.4072 -0.4072 -0.4072 -0.4072 -0.4072 -0.4073 
-0.4071 -0.4071 -0.4071 -0.4071 -0.4071 -0.4071 -0.4072 -0.4072 -0.4072 -0.4072 -0.4072 -0.4072 -0.4072 -0.4072 -0.4072 -0.4072 -0.4072 -0.4072 -0.4072 -0.4072 -0.4073 
-0.4071 -0.4071 -0.4071 -0.4071 -0.4071 -0.4071 -0.4072 -0.4072 -0.4072 -0.4072 -0.4072 -0.4072 -0.4072 -0.4072 -0.4072 -0.4072 -0.4072 -0.4072 -0.4072 -0.4072 -0.4073 
-0.4071 -0.4071 -0.4071 -0.4071 -0.4071 -0.4071 -0.4072 -0.4072 -0.4072 -0.4072 -0.4072 -0.4072 -0.4072 -0.4072 -0.4072 -0.4072 -0.4072 -0.4072 -0.4072 -0.4072 -0.4073 
-0.4071 -0.4071 -0.4071 -0.4071 -0.4071 -0.4071 -0.4072 -0.4072 -0.4072 -0.4072 -0.4072 -0.4072 -0.4072 -0.4072 -0.4072 -0.4072 -0.4072 -0.4072 -0.4072 -0.4072 -0.4073 
-0.4071 -0.4071 -0.4071 -0.4071 -0.4071 -0.4071 -0.4072 -0.4072 -0.4072 -0.4072 -0.4072 -0.4072 -0.4072 -0.4072 -0.4072 -0.4072 -0.4072 -0.4072 -0.4072 -0.4072 -0.4073 
-0.4071 -0.4071 -0.4071 -0.4071 -0.4071 -0.4071 -0.4072 -0.4072 -0.4072 -0.4072 -0.4072 -0.4072 -0.4072 -0.4072 -0.4072 -0.4072 -0.4072 -0.4072 -0.4072 -0.4072 -0.4073 
-0.4071 -0.4071 -0.4071 -0.4071 -0.4071 -0.4071 -0.4072 -0.4072 -0.4072 -0.4072 -0.4072 -0.4072 -0.4072 -0.4072 -0.4072 -0.4072 -0.4072 -0.4072 -0.4072 -0.4072 -0.4073 
-0.4071 -0.4071 -0.4071 -0.4071 -0.4071 -0.4071 -0.4072 -0.4072 -0.4072 -0.4072 -0.4072 -0.4072 -0.4072 -0.4072 -0.4072 -0.4072 -0.4072 -0.4072 -0.4072 -0.4072 -0.4073 
-0.4071 -0.4071 -0.4071 -0.4071 -0.4071 -0.4071 -0.4072 -0.4072 -0.4072 -0.4072 -0.4072 -0.4072 -0.4072 -0.4072 -0.4072 -0.4072 -0.4072 -0.4072 -0.4072 -0.4072 -0.4073 
</DataArray>
<DataArray Name="ne" NumberOfComponents="1" format="ascii" type="Float64">
0.9993 0.9993 0.9993 0.9993 0.9993 0.9993 0.9993 0.9993 0.9993 0.9993 0.9993 0.9993 0.9993 0.9993 0.9993 0.9993 0.9993 0.9993 0.9993 0.9993 0.9993 
0.9993 0.9993 0.9993 0.9993 0.9993 0.9993 0.9993 0.9993 0.9993 0.9993 0.9993 0.9993 0.9993 0.9993 0.9993 0.9993 0.9993 0.9993 0.9993 0.9993 0.9993 
0.9993 0.9993 0.9993 0.9993 0.9993 0.9993 0.9993 0.9993 0.9993 0.9993 0.9993 0.9993 0.9993 0.9993 0.9993 0.9993 0.9993 0.9993 0.9993 0.9993 0.9993 
0.9993 0.9993 0.9993 0.9993 0.9993 0.9993 0.9993 0.9993 0.9993 0.9993 0.9993 0.9993 0.9993 0.9993 0.9993 0.9993 0.9993 0.9993 0.9993 0.9993 0.9993 
0.9993 0.9993 0.9993 0.9993 0.9993 0.9993 0.9993 0.9993 0.9993 0.9993 0.9993 0.9993 0.9993 0.9993 0.9993 0.9993 0.9993 0.9993 0.9993 0.9993 0.9993 
0.9993 0.9993 0.9993 0.9993 0.9993 0.9993 0.9993 0.9993 0.9993 0.9993 0.9993 0.9993 0.9993 0.9993 0.9993 0.9993 0.9993 0.9993 0.9993 0.9993 0.9993 
0.9993 0.9993 0.9993 0.9993 0.9993 0.9993 0.9993 0.9993 0.9993 0.9993 0.9993 0.9993 0.9993 0.9993 0.9993 0.9993 0.9993 0.9993 0.9993 0.9993 0.9993 
0.9993 0.9993 0.9993 0.9993 0.9993 0.9993 0.9993 0.9993 0.9993 0.9993 0.9993 0.9993 0.9993 0.9993 0.9993 0.9993 0.9993 0.9993 0.9993 0.9993 0.9993 
0.9993 0.9993 0.9993 0.9993 0.9993 0.9993 0.9993 0.9993 0.9993 0.9993 0.9993 0.9993 0.9993 0.9993 0.9993 0.9993 0.9993 0.9993 0.9993 0.9993 0.9993 
0.9993 0.9993 0.9993 0.9993 0.9993 0.9993 0.9993 0.9993 0.9993 0.9993 0.9993 0.9993 0.9993 0.9993 0.9993 0.9993 0.9993 0.9993 0.9993 0.9993 0.9993 
0.9993 0.9993 0.9993 0.9993 0.9993 0.9993 0.9993 0.9993 0.9993 0.9993 0.9993 0.9993 0.9993 0.9993 0.9993 0.9993 0.9993 0.9993 0.9993 0.9993 0.9993 
0.9993 0.9993 0.9993 0.9993 0.9993 0.9993 0.9993 0.9993 0.9993 0.9993 0.9993 0.9993 0.9993 0.9993 0.9993 0.9993 0.9993 0.9993 0.9993 0.9993 0.9993 
0.9993 0.9993 0.9993 0.9993 0.9993 0.9993 0.9993 0.9993 0.9993 0.9993 0.9993 0.9993 0.9993 0.9993 0.9993 0.9993 0.9993 0.9993 0.9993 0.9993 0.9993 
0.9993 0.9993 0.9993 0.9993 0.9993 0.9993 0.9993 0.9993 0.9993 0.9993 0.9993 0.9993 0.9993 0.9993 0.9993 0.9993 0.9993 0.9993 0.9993 0.9993 0.9993 
0.9993 0.9993 0.9993 0.9993 0.9993 0.9993 0.9993 0.9993 0.9993 0.9993 0.9993 0.9993 0.9993 0.9993 0.9993 0.9993 0.9993 0.9993 0.9993 0.9993 0.9993 
0.9993 0.9993 0.9993 0.9993 0.9993 0.9993 0.9993 0.9993 0.9993 0.9993 0.9993 0.9993 0.9993 0.9993 0.9993 0.9993 0.9993 0.9993 0.9993 0.9993 0.9993 
0.9993 0.9993 0.9993 0.9993 0.9993 0.9993 0.9993 0.9993 0.9993 0.9993 0.9993 0.9993 0.9993 0.9993 0.9993 0.9993 0.9993 0.9993 0.9993 0.9993 0.9993 
0.9993 0.9993 0.9993 0.9993 0.9993 0.9993 0.9993 0.9993 0.9993 0.9993 0.9993 0.9993 0.9993 0.9993 0.9993 0.9993 0.9993 0.9993 0.9993 0.9993 0.9993 
0.9993 0.9993 0.9993 0.9993 0.9993 0.9993 0.9993 0.9993 0.9993 0.9993 0.9993 0.9993 0.9993 0.9993 0.9993 0.9993 0.9993 0.9993 0.9993 0.9993 0.9993 
0.9993 0.9993 0.9993 0.9993 0.9993 0.9993 0.9993 0.9993 0.9993 0.9993 0.9993 0.9993 0.9993 0.9993 0.9993 0.9993 0.9993 0.9993 0.9993 0.9993 0.9993 
0.9993 0.9993 0.9993 0.9993 0.9993 0.9993 0.9993 0.9993 0.9993 0.9993 0.9993 0.9993 0.9993 0.9993 0.9993 0.9993 0.9993 0.9993 0.9993 0.9993 0.9993 
0.9993 0.9993 0.9993 0.9993 0.9993 0.9993 0.9993 0.9993 0.9993 0.9993 0.9993 0.9993 0.9993 0.9993 0.9993 0.9993 0.9993 0.9993 0.9993 0.9993 0.9993 
0.9993 0.9993 0.9993 0.9993 0.9993 0.9993 0.9993 0.9993 0.9993 0.9993 0.9993 0.9993 0.9993 0.9993 0.9993 0.9993 0.9993 0.9993 0.9993 0.9993 0.9993 
0.9993 0.9993 0.9993 0.9993 0.9993 0.9993 0.9993 0.9993 0.9993 0.9993 0.9993 0.9993 0.9993 0.9993 0.9993 0.9993 0.9993 0.9993 0.9993 0.9993 0.9993 
0.9993 0.9993 0.9993 0.9993 0.9993 0.9993 0.9993 0.9993 0.9993 0.9993 0.9993 0.9993 0.9993 0.9993 0.9993 0.9993 0.9993 0.9993 0.9993 0.9993 0.9993 
0.9993 0.9993 0.9993 0.9993 0.9993 0.9993 0.9993 0.9993 0.9993 0.9993 0.9993 0.9993 0.9993 0.9993 0.9993 0.9993 0.9993 0.9993 0.9993 0.9993 0.9993 
0.9993 0.9993 0.9993 0.9993 0.9993 0.9993 0.9993 0.9993 0.9993 0.9993 0.9993 0.9993 0.9993 0.9993 0.9993 0.9993 0.9993 0.9993 0.9993 0.9993 0.9993 
0.9993 0.9993 0.9993 0.9993 0.9993 0.9993 0.9993 0.9993 0.9993 0.9993 0.9993 0.9993 0.9993 0.9993 0.9993 0.9993 0.9993 0.9993 0.9993 0.9993 0.9993 
0.9993 0.9993 0.9993 0.9993 0.9993 0.9993 0.9993 0.9993 0.9993 0.9993 0.9993 0.9993 0.9993 0.9993 0.9993 0.9993 0.9993 0.9993 0.9993 0.9993 0.9993 
0.9993 0.9993 0.9993 0.9993 0.9993 0.9993 0.9993 0.9993 0.9993 0.9993 0.9993 0.9993 0.9993 0.9993 0.9993 0.9993 0.9993 0.9993 0.9993 0.9993 0.9993 
0.9993 0.9993 0.9993 0.9993 0.9993 0.9993 0.9993 0.9993 0.9993 0.9993 0.9993 0.9993 0.9993 0.9993 0.9993 0.9993 0.9993 0.9993 0.9993 0.9993 0.9993 
0.9993 0.9993 0.9993 0.9993 0.9993 0.9993 0.9993 0.9993 0.9993 0.9993 0.9993 0.9993 0.9993 0.9993 0.9993 0.9993 0.9993 0.9993 0.9993 0.9993 0.9993 
0.9993 0.9993 0.9993 0.9993 0.9993 0.9993 0.9993 0.9993 0.9993 0.9993 0.9993 0.9993 0.9993 0.9993 0.9993 0.9993 0.9993 0.9993 0.9993 0.9993 0.9993 
0.9993 0.9993 0.9993 0.9993 0.9993 0.9993 0.9993 0.9993 0.9993 0.9993 0.9993 0.9993 0.9993 0.9993 0.9993 0.9993 0.9993 0.9993 0.9993 0.9993 0.9993 
0.9993 0.9993 0.9993 0.9993 0.9993 0.9993 0.9993 0.9993 0.9993 0.9993 0.9993 0.9993 0.9993 0.9993 0.9993 0.9993 0.9993 0.9993 0.9993 0.9993 0.9993 
0.9993 0.9993 0.9993 0.9993 0.9993 0.9993 0.9993 0.9993 0.9993 0.9993 0.9993 0.9993 0.9993 0.9993 0.9993 0.9993 0.9993 0.9993 0.9993 0.9993 0.9993 
0.9993 0.9993 0.9993 0.9993 0.9993 0.9993 0.9993 0.9993 0.9993 0.9993 0.9993 0.9993 0.9993 0.9993 0.9993 0.9993 0.9993 0.9993 0.9993 0.9993 0.9993 
0.9993 0.9993 0.9993 0.9993 0.9993 0.9993 0.9993 0.9993 0.9993 0.9993 0.9993 0.9993 0.9993 0.9993 0.9993 0.9993 0.9993 0.9993 0.9993 0.9993 0.9993 
0.9993 0.9993 0.9993 0.9993 0.9993 0.9993 0.9993 0.9993 0.9993 0.9993 0.9993 0.9993 0.9993 0.9993 0.9993 0.9993 0.9993 0.9993 0.9993 0.9993 0.9993 
0.9993 0.9993 0.9993 0.9993 0.9993 0.9993 0.9993 0.9993 0.9993 0.9993 0.9993 0.9993 0.9993 0.9993 0.9993 0.9993 0.9993 0.9993 0.9993 0.9993 0.9993 
0.9993 0.9993 0.9993 0.9993 0.9993 0.9993 0.9993 0.9993 0.9993 0.9993 0.9993 0.9993 0.9993 0.9993 0.9993 0.9993 0.9993 0.9993 0.9993 0.9993 0.9993 
</DataArray>
</PointData>
</Piece>
</ImageData>
</VTKFile>
