<VTKFile type="ImageData">
<ImageData Origin="0 -10 0" Spacing="0.5 0.5 1" WholeExtent="0 20 0 40 0 0">
<Piece Extent="0 20 0 40 0 0">
<PointData>
<DataArray Name="f" NumberOfComponents="1" format="ascii" type="Float64">
1.572e-08 1.572e-08 1.572e-08 1.572e-08 1.572e-08 1.572e-08 1.572e-08 1.572e-08 1.572e-08 1.572e-08 1.572e-08 1.572e-08 1.572e-08 1.572e-08 1.572e-08 1.572e-08 1.572e-08 1.572e-08 1.572e-08 1.572e-08 1.572e-08 
1.165e-07 1.165e-07 1.165e-07 1.165e-07 1.165e-07 1.165e-07 1.165e-07 1.165e-07 1.165e-07 1.165e-07 1.165e-07 1.165e-07 1.165e-07 1.165e-07 1.165e-07 1.165e-07 1.165e-07 1.165e-07 1.165e-07 1.165e-07 1.165e-07 
7.552e-07 7.552e-07 7.552e-07 7.552e-07 7.552e-07 7.552e-07 7.552e-07 7.552e-07 7.552e-07 7.552e-07 7.552e-07 7.552e-07 7.552e-07 7.552e-07 7.552e-07 7.552e-07 7.552e-07 7.552e-07 7.552e-07 7.552e-07 7.552e-07 
4.293e-06 4.293e-06 4.293e-06 4.293e-06 4.293e-06 4.293e-06 4.293e-06 4.293e-06 4.293e-06 4.293e-06 4.293e-06 4.293e-06 4.293e-06 4.293e-06 4.293e-06 4.293e-06 4.293e-06 4.293e-06 4.293e-06 4.293e-06 4.293e-06 
2.147e-05 2.147e-05 2.147e-05 2.147e-05 2.147e-05 2.147e-05 2.147e-05 2.147e-05 2.147e-05 2.147e-05 2.147e-05 2.147e-05 2.147e-05 2.147e-05 2.147e-05 2.147e-05 2.147e-05 2.147e-05 2.147e-05 2.147e-05 2.147e-05 
9.46e-05 9.46e-05 9.46e-05 9.46e-05 9.46e-05 9.46e-05 9.46e-05 9.46e-05 9.46e-05 9.46e-05 9.46e-05 9.46e-05 9.46e-05 9.46e-05 9.46e-05 9.46e-05 9.46e-05 9.46e-05 9.46e-05 9.46e-05 9.46e-05 
0.000368 0.000368 0.000368 0.000368 0.000368 0.000368 0.000368 0.000368 0.000368 0.000368 0.000368 0.000368 0.000368 0.000368 0.000368 0.000368 0.000368 0.000368 0.000368 0.000368 0.000368 
0.001265 0.001265 0.001265 0.001265 0.001265 0.001265 0.001265 0.001265 0.001265 0.001265 0.001265 0.001265 0.001265 0.001265 0.001265 0.001265 0.001265 0.001265 0.001265 0.001265 0.001265 
0.003845 0.003845 0.003845 0.003845 0.003845 0.003845 0.003845 0.003845 0.003845 0.003845 0.003845 0.003845 0.003845 0.003845 0.003845 0.003845 0.003845 0.003845 0.003845 0.003845 0.003845 
0.01033 0.01033 0.01033 0.01033 0.01033 0.01033 0.01033 0.01033 0.01033 0.01033 0.01033 0.01033 0.01033 0.01033 0.01033 0.01033 0.01033 0.01033 0.01033 0.01033 0.01033 
0.02454 0.02454 0.02454 0.02454 0.02454 0.02454 0.02454 0.02454 0.02454 0.02454 0.02454 0.02454 0.02454 0.02454 0.02454 0.02454 0.02454 0.02454 0.02454 0.02454 0.02454 
0.05145 0.05145 0.05145 0.05145 0.05145 0.05145 0.05145 0.05145 0.05145 0.05145 0.05145 0.05145 0.05145 0.05145 0.05145 0.05145 0.05145 0.05145 0.05145 0.05145 0.05145 
0.09513 0.09513 0.09513 0.09513 0.09513 0.09513 0.09513 0.09513 0.09513 0.09513 0.09513 0.09513 0.09513 0.09513 0.09513 0.09513 0.09513 0.09513 0.09513 0.09513 0.09513 
0.1548 0.1548 0.1548 0.1548 0.1548 0.1548 0.1548 0.1548 0.1548 0.1548 0.1548 0.1548 0.1548 0.1548 0.1548 0.1548 0.1548 0.1548 0.1548 0.1548 0.1548 
0.221 0.221 0.221 0.221 0.221 0.221 0.221 0.221 0.221 0.221 0.221 0.221 0.221 0.221 0.221 0.221 0.221 0.221 0.221 0.221 0.221 
0.2762 0.2762 0.2762 0.2762 0.2762 0.2762 0.2762 0.2762 0.2762 0.2762 0.2762 0.2762 0.2762 0.2762 0.2762 0.2762 0.2762 0.2762 0.2762 0.2762 0.2762 
0.3009 0.3009 0.3009 0.3009 0.3009 0.3009 0.3009 0.3009 0.3009 0.3009 0.3009 0.3009 0.3009 0.3009 0.3009 0.3009 0.3009 0.3009 0.3009 0.3009 0.3009 
0.2846 0.2846 0.2846 0.2846 0.2846 0.2846 0.2846 0.2846 0.2846 0.2846 0.2846 0.2846 0.2846 0.2846 0.2846 0.2846 0.2846 0.2846 0.2846 0.2846 0.2846 
0.2325 0.2325 0.2325 0.2325 0.2325 0.2325 0.2325 0.2325 0.2325 0.2325 0.2325 0.2325 0.2325 0.2325 0.2325 0.2325 0.2325 0.2325 0.2325 0.2325 0.2325 
0.1633 0.1633 0.1633 0.1633 0.1633 0.1633 0.1633 0.1633 0.1633 0.1633 0.1633 0.1633 0.1633 0.1633 0.1633 0.1633 0.1633 0.1633 0.1633 0.1633 0.1633 
0.09793 0.09793 0.09793 0.09793 0.09793 0.09793 0.09793 0.09793 0.09793 0.09793 0.09793 0.09793 0.09793 0.09793 0.09793 0.09793 0.09793 0.09793 0.09793 0.09793 0.09793 
0.04984 0.04984 0.04984 0.04984 0.04984 0.04984 0.04984 0.04984 0.04984 0.04984 0.04984 0.04984 0.04984 0.04984 0.04984 0.04984 0.04984 0.04984 0.04984 0.04984 0.04984 
0.02138 0.02138 0.02138 0.02138 0.02138 0.02138 0.02138 0.02138 0.02138 0.02138 0.02138 0.02138 0.02138 0.02138 0.02138 0.02138 0.02138 0.02138 0.02138 0.02138 0.02138 
0.00767 0.00767 0.00767 0.00767 0.00767 0.00767 0.00767 0.00767 0.00767 0.00767 0.00767 0.00767 0.00767 0.00767 0.00767 0.00767 0.00767 0.00767 0.00767 0.00767 0.00767 
0.002285 0.002285 0.002285 0.002285 0.002285 0.002285 0.002285 0.002285 0.002285 0.002285 0.002285 0.002285 0.002285 0.002285 0.002285 0.002285 0.002285 0.002285 0.002285 0.002285 0.002285 
0.0005609 0.0005609 0.0005609 0.0005609 0.0005609 0.0005609 0.0005609 0.0005609 0.0005609 0.0005609 0.0005609 0.0005609 0.0005609 0.0005609 0.0005609 0.0005609 0.0005609 0.0005609 0.0005609 0.0005609 0.0005609 
0.0001126 0.0001126 0.0001126 0.0001126 0.0001126 0.0001126 0.0001126 0.0001126 0.0001126 0.0001126 0.0001126 0.0001126 0.0001126 0.0001126 0.0001126 0.0001126 0.0001126 0.0001126 0.0001126 0.0001126 0.0001126 
1.837e-05 1.837e-05 1.837e-05 1.837e-05 1.837e-05 1.837e-05 1.837e-05 1.837e-05 1.837e-05 1.837e-05 1.837e-05 1.837e-05 1.837e-05 1.837e-05 1.837e-05 1.837e-05 1.837e-05 1.837e-05 1.837e-05 1.837e-05 1.837e-05 
2.418e-06 2.418e-06 2.418e-06 2.418e-06 2.418e-06 2.418e-06 2.418e-06 2.418e-06 2.418e-06 2.418e-06 2.418e-06 2.418e-06 2.418e-06 2.418e-06 2.418e-06 2.418e-06 2.418e-06 2.418e-06 2.418e-06 2.418e-06 2.418e-06 
2.554e-07 2.554e-07 2.554e-07 2.554e-07 2.554e-07 2.554e-07 2.554e-07 2.554e-07 2.554e-07 2.554e-07 2.554e-07 2.554e-07 2.554e-07 2.554e-07 2.554e-07 2.554e-07 2.554e-07 2.554e-07 2.554e-07 2.554e-07 2.554e-07 
2.153e-08 2.153e-08 2.153e-08 2.153e-08 2.153e-08 2.153e-08 2.153e-08 2.153e-08 2.153e-08 2.153e-08 2.153e-08 2.153e-08 2.153e-08 2.153e-08 2.153e-08 2.153e-08 2.153e-08 2.153e-08 2.153e-08 2.153e-08 2.153e-08 
1.442e-09 1.442e-09 1.442e-09 1.442e-09 1.442e-09 1.442e-09 1.442e-09 1.442e-09 1.442e-09 1.442e-09 1.442e-09 1.442e-09 1.442e-09 1.442e-09 1.442e-09 1.442e-09 1.442e-09 1.442e-09 1.442e-09 1.442e-09 1.442e-09 
7.644e-11 7.644e-11 7.644e-11 7.644e-11 7.644e-11 7.644e-11 7.644e-11 7.644e-11 7.644e-11 7.644e-11 7.644e-11 7.644e-11 7.644e-11 7.644e-11 7.644e-11 7.644e-11 7.644e-11 7.644e-11 7.644e-11 7.644e-11 7.644e-11 
3.197e-12 3.197e-12 3.197e-12 3.197e-12 3.197e-12 3.197e-12 3.197e-12 3.197e-12 3.197e-12 3.197e-12 3.197e-12 3.197e-12 3.197e-12 3.197e-12 3.197e-12 3.197e-12 3.197e-12 3.197e-12 3.197e-12 3.197e-12 3.197e-12 
1.055e-13 1.055e-13 1.055e-13 1.055e-13 1.055e-13 1.055e-13 1.055e-13 1.055e-13 1.055e-13 1.055e-13 1.055e-13 1.055e-13 1.055e-13 1.055e-13 1.055e-13 1.055e-13 1.055e-13 1.055e-13 1.055e-13 1.055e-13 1.055e-13 
7.119e-15 7.119e-15 7.119e-15 7.119e-15 7.119e-15 7.119e-15 7.119e-15 7.119e-15 7.119e-15 7.119e-15 7.119e-15 7.119e-15 7.119e-15 7.119e-15 7.119e-15 7.119e-15 7.119e-15 7.119e-15 7.119e-15 7.119e-15 7.119e-15 
8.065e-14 8.065e-14 8.065e-14 8.065e-14 8.065e-14 8.065e-14 8.065e-14 8.065e-14 8.065e-14 8.065e-14 8.065e-14 8.065e-14 8.065e-14 8.065e-14 8.065e-14 8.065e-14 8.065e-14 8.065e-14 8.065e-14 8.065e-14 8.065e-14 
1.251e-12 1.251e-12 1.251e-12 1.251e-12 1.251e-12 1.251e-12 1.251e-12 1.251e-12 1.251e-12 1.251e-12 1.251e-12 1.251e-12 1.251e-12 1.251e-12 1.251e-12 1.251e-12 1.251e-12 1.251e-12 1.251e-12 1.251e-12 1.251e-12 
1.657e-11 1.657e-11 1.657e-11 1.657e-11 1.657e-11 1.657e-11 1.657e-11 1.657e-11 1.657e-11 1.657e-11 1.657e-11 1.657e-11 1.657e-11 1.657e-11 1.657e-11 1.657e-11 1.657e-11 1.657e-11 1.657e-11 1.657e-11 1.657e-11 
1.884e-10 1.884e-10 1.884e-10 1.884e-10 1.884e-10 1.884e-10 1.884e-10 1.884e-10 1.884e-10 1.884e-10 1.884e-10 1.884e-10 1.884e-10 1.884e-10 1.884e-10 1.884e-10 1.884e-10 1.884e-10 1.884e-10 1.884e-10 1.884e-10 
1.848e-09 1.848e-09 1.848e-09 1.848e-09 1.848e-09 1.848e-09 1.848e-09 1.848e-09 1.848e-09 1.848e-09 1.848e-09 1.848e-09 1.848e-09 1.848e-09 1.848e-09 1.848e-09 1.848e-09 1.848e-09 1.848e-09 1.848e-09 1.848e-09 
</DataArray>
<DataArray Name="E" NumberOfComponents="1" format="ascii" type="Float64">
1 1 1 1 1 1 1 1 1 1 1 1 1 1 1 1 1 1 1 1 1 
1 1 1 1 1 1 1 1 1 1 1 1 1 1 1 1 1 1 1 1 1 
1 1 1 1 1 1 1 1 1 1 1 1 1 1 1 1 1 1 1 1 1 
1 1 1 1 1 1 1 1 1 1 1 1 1 1 1 1 1 1 1 1 1 
1 1 1 1 1 1 1 1 1 1 1 1 1 1 1 1 1 1 1 1 1 
1 1 1 1 1 1 1 1 1 1 1 1 1 1 1 1 1 1 1 1 1 
1 1 1 1 1 1 1 1 1 1 1 1 1 1 1 1 1 1 1 1 1 
1 1 1 1 1 1 1 1 1 1 1 1 1 1 1 1 1 1 1 1 1 
1 1 1 1 1 1 1 1 1 1 1 1 1 1 1 1 1 1 1 1 1 
1 1 1 1 1 1 1 1 1 1 1 1 1 1 1 1 1 1 1 1 1 
1 1 1 1 1 1 1 1 1 1 1 1 1 1 1 1 1 1 1 1 1 
1 1 1 1 1 1 1 1 1 1 1 1 1 1 1 1 1 1 1 1 1 
1 1 1 1 1 1 1 1 1 1 1 1 1 1 1 1 1 1 1 1 1 
1 1 1 1 1 1 1 1 1 1 1 1 1 1 1 1 1 1 1 1 1 
1 1 1 1 1 1 1 1 1 1 1 1 1 1 1 1 1 1 1 1 1 
1 1 1 1 1 1 1 1 1 1 1 1 1 1 1 1 1 1 1 1 1 
1 1 1 1 1 1 1 1 1 1 1 1 1 1 1 1 1 1 1 1 1 
1 1 1 1 1 1 1 1 1 1 1 1 1 1 1 1 1 1 1 1 1 
1 1 1 1 1 1 1 1 1 1 1 1 1 1 1 1 1 1 1 1 1 
1 1 1 1 1 1 1 1 1 1 1 1 1 1 1 1 1 1 1 1 1 
1 1 1 1 1 1 1 1 1 1 1 1 1 1 1 1 1 1 1 1 1 
1 1 1 1 1 1 1 1 1 1 1 1 1 1 1 1 1 1 1 1 1 
1 1 1 1 1 1 1 1 1 1 1 1 1 1 1 1 1 1 1 1 1 
1 1 1 1 1 1 1 1 1 1 1 1 1 1 1 1 1 1 1 1 1 
1 1 1 1 1 1 1 1 1 1 1 1 1 1 1 1 1 1 1 1 1 
1 1 1 1 1 1 1 1 1 1 1 1 1 1 1 1 1 1 1 1 1 
1 1 1 1 1 1 1 1 1 1 1 1 1 1 1 1 1 1 1 1 1 
1 1 1 1 1 1 1 1 1 1 1 1 1 1 1 1 1 1 1 1 1 
1 1 1 1 1 1 1 1 1 1 1 1 1 1 1 1 1 1 1 1 1 
1 1 1 1 1 1 1 1 1 1 1 1 1 1 1 1 1 1 1 1 1 
1 1 1 1 1 1 1 1 1 1 1 1 1 1 1 1 1 1 1 1 1 
1 1 1 1 1 1 1 1 1 1 1 1 1 1 1 1 1 1 1 1 1 
1 1 1 1 1 1 1 1 1 1 1 1 1 1 1 1 1 1 1 1 1 
1 1 1 1 1 1 1 1 1 1 1 1 1 1 1 1 1 1 1 1 1 
1 1 1 1 1 1 1 1 1 1 1 1 1 1 1 1 1 1 1 1 1 
1 1 1 1 1 1 1 1 1 1 1 1 1 1 1 1 1 1 1 1 1 
1 1 1 1 1 1 1 1 1 1 1 1 1 1 1 1 1 1 1 1 1 
1 1 1 1 1 1 1 1 1 1 1 1 1 1 1 1 1 1 1 1 1 
1 1 1 1 1 1 1 1 1 1 1 1 1 1 1 1 1 1 1 1 1 
1 1 1 1 1 1 1 1 1 1 1 1 1 1 1 1 1 1 1 1 1 
1 1 1 1 1 1 1 1 1 1 1 1 1 1 1 1 1 1 1 1 1 
</DataArray>
<DataArray Name="ne" NumberOfComponents="1" format="ascii" type="Float64">
1 1 1 1 1 1 1 1 1 1 1 1 1 1 1 1 1 1 1 1 1 
1 1 1 1 1 1 1 1 1 1 1 1 1 1 1 1 1 1 1 1 1 
1 1 1 1 1 1 1 1 1 1 1 1 1 1 1 1 1 1 1 1 1 
1 1 1 1 1 1 1 1 1 1 1 1 1 1 1 1 1 1 1 1 1 
1 1 1 1 1 1 1 1 1 1 1 1 1 1 1 1 1 1 1 1 1 
1 1 1 1 1 1 1 1 1 1 1 1 1 1 1 1 1 1 1 1 1 
1 1 1 1 1 1 1 1 1 1 1 1 1 1 1 1 1 1 1 1 1 
1 1 1 1 1 1 1 1 1 1 1 1 1 1 1 1 1 1 1 1 1 
1 1 1 1 1 1 1 1 1 1 1 1 1 1 1 1 1 1 1 1 1 
1 1 1 1 1 1 1 1 1 1 1 1 1 1 1 1 1 1 1 1 1 
1 1 1 1 1 1 1 1 1 1 1 1 1 1 1 1 1 1 1 1 1 
1 1 1 1 1 1 1 1 1 1 1 1 1 1 1 1 1 1 1 1 1 
1 1 1 1 1 1 1 1 1 1 1 1 1 1 1 1 1 1 1 1 1 
1 1 1 1 1 1 1 1 1 1 1 1 1 1 1 1 1 1 1 1 1 
1 1 1 1 1 1 1 1 1 1 1 1 1 1 1 1 1 1 1 1 1 
1 1 1 1 1 1 1 1 1 1 1 1 1 1 1 1 1 1 1 1 1 
1 1 1 1 1 1 1 1 1 1 1 1 1 1 1 1 1 1 1 1 1 
1 1 1 1 1 1 1 1 1 1 1 1 1 1 1 1 1 1 1 1 1 
1 1 1 1 1 1 1 1 1 1 1 1 1 1 1 1 1 1 1 1 1 
1 1 1 1 1 1 1 1 1 1 1 1 1 1 1 1 1 1 1 1 1 
1 1 1 1 1 1 1 1 1 1 1 1 1 1 1 1 1 1 1 1 1 
1 1 1 1 1 1 1 1 1 1 1 1 1 1 1 1 1 1 1 1 1 
1 1 1 1 1 1 1 1 1 1 1 1 1 1 1 1 1 1 1 1 1 
1 1 1 1 1 1 1 1 1 1 1 1 1 1 1 1 1 1 1 1 1 
1 1 1 1 1 1 1 1 1 1 1 1 1 1 1 1 1 1 1 1 1 
1 1 1 1 1 1 1 1 1 1 1 1 1 1 1 1 1 1 1 1 1 
1 1 1 1 1 1 1 1 1 1 1 1 1 1 1 1 1 1 1 1 1 
1 1 1 1 1 1 1 1 1 1 1 1 1 1 1 1 1 1 1 1 1 
1 1 1 1 1 1 1 1 1 1 1 1 1 1 1 1 1 1 1 1 1 
1 1 1 1 1 1 1 1 1 1 1 1 1 1 1 1 1 1 1 1 1 
1 1 1 1 1 1 1 1 1 1 1 1 1 1 1 1 1 1 1 1 1 
1 1 1 1 1 1 1 1 1 1 1 1 1 1 1 1 1 1 1 1 1 
1 1 1 1 1 1 1 1 1 1 1 1 1 1 1 1 1 1 1 1 1 
1 1 1 1 1 1 1 1 1 1 1 1 1 1 1 1 1 1 1 1 1 
1 1 1 1 1 1 1 1 1 1 1 1 1 1 1 1 1 1 1 1 1 
1 1 1 1 1 1 1 1 1 1 1 1 1 1 1 1 1 1 1 1 1 
1 1 1 1 1 1 1 1 1 1 1 1 1 1 1 1 1 1 1 1 1 
1 1 1 1 1 1 1 1 1 1 1 1 1 1 1 1 1 1 1 1 1 
1 1 1 1 1 1 1 1 1 1 1 1 1 1 1 1 1 1 1 1 1 
1 1 1 1 1 1 1 1 1 1 1 1 1 1 1 1 1 1 1 1 1 
1 1 1 1 1 1 1 1 1 1 1 1 1 1 1 1 1 1 1 1 1 
</DataArray>
</PointData>
</Piece>
</ImageData>
</VTKFile>
