<VTKFile type="ImageData">
<ImageData Origin="0 -10 0" Spacing="0.5 0.5 1" WholeExtent="0 20 0 40 0 0">
<Piece Extent="0 20 0 40 0 0">
<PointData>
<DataArray Name="f" NumberOfComponents="1" format="ascii" type="Float64">
1.849e-09 1.849e-09 1.849e-09 1.849e-09 1.849e-09 1.849e-09 1.849e-09 1.849e-09 1.849e-09 1.849e-09 1.849e-09 1.849e-09 1.849e-09 1.849e-09 1.849e-09 1.849e-09 1.849e-09 1.849e-09 1.849e-09 1.849e-09 1.849e-09 
1.691e-08 1.691e-08 1.691e-08 1.691e-08 1.691e-08 1.691e-08 1.691e-08 1.691e-08 1.691e-08 1.691e-08 1.691e-08 1.691e-08 1.691e-08 1.691e-08 1.691e-08 1.691e-08 1.691e-08 1.691e-08 1.691e-08 1.691e-08 1.691e-08 
1.334e-07 1.334e-07 1.334e-07 1.334e-07 1.334e-07 1.334e-07 1.334e-07 1.334e-07 1.334e-07 1.334e-07 1.334e-07 1.334e-07 1.334e-07 1.334e-07 1.334e-07 1.334e-07 1.334e-07 1.334e-07 1.334e-07 1.334e-07 1.334e-07 
9.116e-07 9.116e-07 9.116e-07 9.116e-07 9.116e-07 9.116e-07 9.116e-07 9.116e-07 9.116e-07 9.116e-07 9.116e-07 9.116e-07 9.116e-07 9.116e-07 9.116e-07 9.116e-07 9.116e-07 9.116e-07 9.116e-07 9.116e-07 9.116e-07 
5.413e-06 5.413e-06 5.413e-06 5.413e-06 5.413e-06 5.413e-06 5.413e-06 5.413e-06 5.413e-06 5.413e-06 5.413e-06 5.413e-06 5.413e-06 5.413e-06 5.413e-06 5.413e-06 5.413e-06 5.413e-06 5.413e-06 5.413e-06 5.413e-06 
2.801e-05 2.801e-05 2.801e-05 2.801e-05 2.801e-05 2.801e-05 2.801e-05 2.801e-05 2.801e-05 2.801e-05 2.801e-05 2.801e-05 2.801e-05 2.801e-05 2.801e-05 2.801e-05 2.801e-05 2.801e-05 2.801e-05 2.801e-05 2.801e-05 
0.0001267 0.0001267 0.0001267 0.0001267 0.0001267 0.0001267 0.0001267 0.0001267 0.0001267 0.0001267 0.0001267 0.0001267 0.0001267 0.0001267 0.0001267 0.0001267 0.0001267 0.0001267 0.0001267 0.0001267 0.0001267 
0.0005014 0.0005014 0.0005014 0.0005014 0.0005014 0.0005014 0.0005014 0.0005014 0.0005014 0.0005014 0.0005014 0.0005014 0.0005014 0.0005014 0.0005014 0.0005014 0.0005014 0.0005014 0.0005014 0.0005014 0.0005014 
0.001739 0.001739 0.001739 0.001739 0.001739 0.001739 0.001739 0.001739 0.001739 0.001739 0.001739 0.001739 0.001739 0.001739 0.001739 0.001739 0.001739 0.001739 0.001739 0.001739 0.001739 
0.005291 0.005291 0.005291 0.005291 0.005291 0.005291 0.005291 0.005291 0.005291 0.005291 0.005291 0.005291 0.005291 0.005291 0.005291 0.005291 0.005291 0.005291 0.005291 0.005291 0.005291 
0.01411 0.01411 0.01411 0.01411 0.01411 0.01411 0.01411 0.01411 0.01411 0.01411 0.01411 0.01411 0.01411 0.01411 0.01411 0.01411 0.01411 0.01411 0.01411 0.01411 0.01411 
0.033 0.033 0.033 0.033 0.033 0.033 0.033 0.033 0.033 0.033 0.033 0.033 0.033 0.033 0.033 0.033 0.033 0.033 0.033 0.033 0.033 
0.06756 0.06756 0.06756 0.06756 0.06756 0.06756 0.06756 0.06756 0.06756 0.06756 0.06756 0.06756 0.06756 0.06756 0.06756 0.06756 0.06756 0.06756 0.06756 0.06756 0.06756 
0.1209 0.1209 0.1209 0.1209 0.1209 0.1209 0.1209 0.1209 0.1209 0.1209 0.1209 0.1209 0.1209 0.1209 0.1209 0.1209 0.1209 0.1209 0.1209 0.1209 0.1209 
0.1887 0.1887 0.1887 0.1887 0.1887 0.1887 0.1887 0.1887 0.1887 0.1887 0.1887 0.1887 0.1887 0.1887 0.1887 0.1887 0.1887 0.1887 0.1887 0.1887 0.1887 
0.2561 0.2561 0.2561 0.2561 0.2561 0.2561 0.2561 0.2561 0.2561 0.2561 0.2561 0.2561 0.2561 0.2561 0.2561 0.2561 0.2561 0.2561 0.2561 0.2561 0.2561 
0.3013 0.3013 0.3013 0.3013 0.3013 0.3013 0.3013 0.3013 0.3013 0.3013 0.3013 0.3013 0.3013 0.3013 0.3013 0.3013 0.3013 0.3013 0.3013 0.3013 0.3013 
0.3059 0.3059 0.3059 0.3059 0.3059 0.3059 0.3059 0.3059 0.3059 0.3059 0.3059 0.3059 0.3059 0.3059 0.3059 0.3059 0.3059 0.3059 0.3059 0.3059 0.3059 
0.2668 0.2668 0.2668 0.2668 0.2668 0.2668 0.2668 0.2668 0.2668 0.2668 0.2668 0.2668 0.2668 0.2668 0.2668 0.2668 0.2668 0.2668 0.2668 0.2668 0.2668 
0.1989 0.1989 0.1989 0.1989 0.1989 0.1989 0.1989 0.1989 0.1989 0.1989 0.1989 0.1989 0.1989 0.1989 0.1989 0.1989 0.1989 0.1989 0.1989 0.1989 0.1989 
0.1259 0.1259 0.1259 0.1259 0.1259 0.1259 0.1259 0.1259 0.1259 0.1259 0.1259 0.1259 0.1259 0.1259 0.1259 0.1259 0.1259 0.1259 0.1259 0.1259 0.1259 
0.06727 0.06727 0.06727 0.06727 0.06727 0.06727 0.06727 0.06727 0.06727 0.06727 0.06727 0.06727 0.06727 0.06727 0.06727 0.06727 0.06727 0.06727 0.06727 0.06727 0.06727 
0.03013 0.03013 0.03013 0.03013 0.03013 0.03013 0.03013 0.03013 0.03013 0.03013 0.03013 0.03013 0.03013 0.03013 0.03013 0.03013 0.03013 0.03013 0.03013 0.03013 0.03013 
0.01123 0.01123 0.01123 0.01123 0.01123 0.01123 0.01123 0.01123 0.01123 0.01123 0.01123 0.01123 0.01123 0.01123 0.01123 0.01123 0.01123 0.01123 0.01123 0.01123 0.01123 
0.003459 0.003459 0.003459 0.003459 0.003459 0.003459 0.003459 0.003459 0.003459 0.003459 0.003459 0.003459 0.003459 0.003459 0.003459 0.003459 0.003459 0.003459 0.003459 0.003459 0.003459 
0.0008739 0.0008739 0.0008739 0.0008739 0.0008739 0.0008739 0.0008739 0.0008739 0.0008739 0.0008739 0.0008739 0.0008739 0.0008739 0.0008739 0.0008739 0.0008739 0.0008739 0.0008739 0.0008739 0.0008739 0.0008739 
0.0001798 0.0001798 0.0001798 0.0001798 0.0001798 0.0001798 0.0001798 0.0001798 0.0001798 0.0001798 0.0001798 0.0001798 0.0001798 0.0001798 0.0001798 0.0001798 0.0001798 0.0001798 0.0001798 0.0001798 0.0001798 
2.994e-05 2.994e-05 2.994e-05 2.994e-05 2.994e-05 2.994e-05 2.994e-05 2.994e-05 2.994e-05 2.994e-05 2.994e-05 2.994e-05 2.994e-05 2.994e-05 2.994e-05 2.994e-05 2.994e-05 2.994e-05 2.994e-05 2.994e-05 2.994e-05 
4.009e-06 4.009e-06 4.009e-06 4.009e-06 4.009e-06 4.009e-06 4.009e-06 4.009e-06 4.009e-06 4.009e-06 4.009e-06 4.009e-06 4.009e-06 4.009e-06 4.009e-06 4.009e-06 4.009e-06 4.009e-06 4.009e-06 4.009e-06 4.009e-06 
4.293e-07 4.293e-07 4.293e-07 4.293e-07 4.293e-07 4.293e-07 4.293e-07 4.293e-07 4.293e-07 4.293e-07 4.293e-07 4.293e-07 4.293e-07 4.293e-07 4.293e-07 4.293e-07 4.293e-07 4.293e-07 4.293e-07 4.293e-07 4.293e-07 
3.661e-08 3.661e-08 3.661e-08 3.661e-08 3.661e-08 3.661e-08 3.661e-08 3.661e-08 3.661e-08 3.661e-08 3.661e-08 3.661e-08 3.661e-08 3.661e-08 3.661e-08 3.661e-08 3.661e-08 3.661e-08 3.661e-08 3.661e-08 3.661e-08 
2.475e-09 2.475e-09 2.475e-09 2.475e-09 2.475e-09 2.475e-09 2.475e-09 2.475e-09 2.475e-09 2.475e-09 2.475e-09 2.475e-09 2.475e-09 2.475e-09 2.475e-09 2.475e-09 2.475e-09 2.475e-09 2.475e-09 2.475e-09 2.475e-09 
1.322e-10 1.322e-10 1.322e-10 1.322e-10 1.322e-10 1.322e-10 1.322e-10 1.322e-10 1.322e-10 1.322e-10 1.322e-10 1.322e-10 1.322e-10 1.322e-10 1.322e-10 1.322e-10 1.322e-10 1.322e-10 1.322e-10 1.322e-10 1.322e-10 
5.561e-12 5.561e-12 5.561e-12 5.561e-12 5.561e-12 5.561e-12 5.561e-12 5.561e-12 5.561e-12 5.561e-12 5.561e-12 5.561e-12 5.561e-12 5.561e-12 5.561e-12 5.561e-12 5.561e-12 5.561e-12 5.561e-12 5.561e-12 5.561e-12 
1.839e-13 1.839e-13 1.839e-13 1.839e-13 1.839e-13 1.839e-13 1.839e-13 1.839e-13 1.839e-13 1.839e-13 1.839e-13 1.839e-13 1.839e-13 1.839e-13 1.839e-13 1.839e-13 1.839e-13 1.839e-13 1.839e-13 1.839e-13 1.839e-13 
4.875e-15 4.875e-15 4.875e-15 4.875e-15 4.875e-15 4.875e-15 4.875e-15 4.875e-15 4.875e-15 4.875e-15 4.875e-15 4.875e-15 4.875e-15 4.875e-15 4.875e-15 4.875e-15 4.875e-15 4.875e-15 4.875e-15 4.875e-15 4.875e-15 
2.681e-15 2.681e-15 2.681e-15 2.681e-15 2.681e-15 2.681e-15 2.681e-15 2.681e-15 2.681e-15 2.681e-15 2.681e-15 2.681e-15 2.681e-15 2.681e-15 2.681e-15 2.681e-15 2.681e-15 2.681e-15 2.681e-15 2.681e-15 2.681e-15 
5.395e-14 5.395e-14 5.395e-14 5.395e-14 5.395e-14 5.395e-14 5.395e-14 5.395e-14 5.395e-14 5.395e-14 5.395e-14 5.395e-14 5.395e-14 5.395e-14 5.395e-14 5.395e-14 5.395e-14 5.395e-14 5.395e-14 5.395e-14 5.395e-14 
9.425e-13 9.425e-13 9.425e-13 9.425e-13 9.425e-13 9.425e-13 9.425e-13 9.425e-13 9.425e-13 9.425e-13 9.425e-13 9.425e-13 9.425e-13 9.425e-13 9.425e-13 9.425e-13 9.425e-13 9.425e-13 9.425e-13 9.425e-13 9.425e-13 
1.388e-11 1.388e-11 1.388e-11 1.388e-11 1.388e-11 1.388e-11 1.388e-11 1.388e-11 1.388e-11 1.388e-11 1.388e-11 1.388e-11 1.388e-11 1.388e-11 1.388e-11 1.388e-11 1.388e-11 1.388e-11 1.388e-11 1.388e-11 1.388e-11 
1.734e-10 1.734e-10 1.734e-10 1.734e-10 1.734e-10 1.734e-10 1.734e-10 1.734e-10 1.734e-10 1.734e-10 1.734e-10 1.734e-10 1.734e-10 1.734e-10 1.734e-10 1.734e-10 1.734e-10 1.734e-10 1.734e-10 1.734e-10 1.734e-10 
</DataArray>
<DataArray Name="E" NumberOfComponents="1" format="ascii" type="Float64">
1 1 1 1 1 1 1 1 1 1 1 1 1 1 1 1 1 1 1 1 1 
1 1 1 1 1 1 1 1 1 1 1 1 1 1 1 1 1 1 1 1 1 
1 1 1 1 1 1 1 1 1 1 1 1 1 1 1 1 1 1 1 1 1 
1 1 1 1 1 1 1 1 1 1 1 1 1 1 1 1 1 1 1 1 1 
1 1 1 1 1 1 1 1 1 1 1 1 1 1 1 1 1 1 1 1 1 
1 1 1 1 1 1 1 1 1 1 1 1 1 1 1 1 1 1 1 1 1 
1 1 1 1 1 1 1 1 1 1 1 1 1 1 1 1 1 1 1 1 1 
1 1 1 1 1 1 1 1 1 1 1 1 1 1 1 1 1 1 1 1 1 
1 1 1 1 1 1 1 1 1 1 1 1 1 1 1 1 1 1 1 1 1 
1 1 1 1 1 1 1 1 1 1 1 1 1 1 1 1 1 1 1 1 1 
1 1 1 1 1 1 1 1 1 1 1 1 1 1 1 1 1 1 1 1 1 
1 1 1 1 1 1 1 1 1 1 1 1 1 1 1 1 1 1 1 1 1 
1 1 1 1 1 1 1 1 1 1 1 1 1 1 1 1 1 1 1 1 1 
1 1 1 1 1 1 1 1 1 1 1 1 1 1 1 1 1 1 1 1 1 
1 1 1 1 1 1 1 1 1 1 1 1 1 1 1 1 1 1 1 1 1 
1 1 1 1 1 1 1 1 1 1 1 1 1 1 1 1 1 1 1 1 1 
1 1 1 1 1 1 1 1 1 1 1 1 1 1 1 1 1 1 1 1 1 
1 1 1 1 1 1 1 1 1 1 1 1 1 1 1 1 1 1 1 1 1 
1 1 1 1 1 1 1 1 1 1 1 1 1 1 1 1 1 1 1 1 1 
1 1 1 1 1 1 1 1 1 1 1 1 1 1 1 1 1 1 1 1 1 
1 1 1 1 1 1 1 1 1 1 1 1 1 1 1 1 1 1 1 1 1 
1 1 1 1 1 1 1 1 1 1 1 1 1 1 1 1 1 1 1 1 1 
1 1 1 1 1 1 1 1 1 1 1 1 1 1 1 1 1 1 1 1 1 
1 1 1 1 1 1 1 1 1 1 1 1 1 1 1 1 1 1 1 1 1 
1 1 1 1 1 1 1 1 1 1 1 1 1 1 1 1 1 1 1 1 1 
1 1 1 1 1 1 1 1 1 1 1 1 1 1 1 1 1 1 1 1 1 
1 1 1 1 1 1 1 1 1 1 1 1 1 1 1 1 1 1 1 1 1 
1 1 1 1 1 1 1 1 1 1 1 1 1 1 1 1 1 1 1 1 1 
1 1 1 1 1 1 1 1 1 1 1 1 1 1 1 1 1 1 1 1 1 
1 1 1 1 1 1 1 1 1 1 1 1 1 1 1 1 1 1 1 1 1 
1 1 1 1 1 1 1 1 1 1 1 1 1 1 1 1 1 1 1 1 1 
1 1 1 1 1 1 1 1 1 1 1 1 1 1 1 1 1 1 1 1 1 
1 1 1 1 1 1 1 1 1 1 1 1 1 1 1 1 1 1 1 1 1 
1 1 1 1 1 1 1 1 1 1 1 1 1 1 1 1 1 1 1 1 1 
1 1 1 1 1 1 1 1 1 1 1 1 1 1 1 1 1 1 1 1 1 
1 1 1 1 1 1 1 1 1 1 1 1 1 1 1 1 1 1 1 1 1 
1 1 1 1 1 1 1 1 1 1 1 1 1 1 1 1 1 1 1 1 1 
1 1 1 1 1 1 1 1 1 1 1 1 1 1 1 1 1 1 1 1 1 
1 1 1 1 1 1 1 1 1 1 1 1 1 1 1 1 1 1 1 1 1 
1 1 1 1 1 1 1 1 1 1 1 1 1 1 1 1 1 1 1 1 1 
1 1 1 1 1 1 1 1 1 1 1 1 1 1 1 1 1 1 1 1 1 
</DataArray>
<DataArray Name="ne" NumberOfComponents="1" format="ascii" type="Float64">
1 1 1 1 1 1 1 1 1 1 1 1 1 1 1 1 1 1 1 1 1 
1 1 1 1 1 1 1 1 1 1 1 1 1 1 1 1 1 1 1 1 1 
1 1 1 1 1 1 1 1 1 1 1 1 1 1 1 1 1 1 1 1 1 
1 1 1 1 1 1 1 1 1 1 1 1 1 1 1 1 1 1 1 1 1 
1 1 1 1 1 1 1 1 1 1 1 1 1 1 1 1 1 1 1 1 1 
1 1 1 1 1 1 1 1 1 1 1 1 1 1 1 1 1 1 1 1 1 
1 1 1 1 1 1 1 1 1 1 1 1 1 1 1 1 1 1 1 1 1 
1 1 1 1 1 1 1 1 1 1 1 1 1 1 1 1 1 1 1 1 1 
1 1 1 1 1 1 1 1 1 1 1 1 1 1 1 1 1 1 1 1 1 
1 1 1 1 1 1 1 1 1 1 1 1 1 1 1 1 1 1 1 1 1 
1 1 1 1 1 1 1 1 1 1 1 1 1 1 1 1 1 1 1 1 1 
1 1 1 1 1 1 1 1 1 1 1 1 1 1 1 1 1 1 1 1 1 
1 1 1 1 1 1 1 1 1 1 1 1 1 1 1 1 1 1 1 1 1 
1 1 1 1 1 1 1 1 1 1 1 1 1 1 1 1 1 1 1 1 1 
1 1 1 1 1 1 1 1 1 1 1 1 1 1 1 1 1 1 1 1 1 
1 1 1 1 1 1 1 1 1 1 1 1 1 1 1 1 1 1 1 1 1 
1 1 1 1 1 1 1 1 1 1 1 1 1 1 1 1 1 1 1 1 1 
1 1 1 1 1 1 1 1 1 1 1 1 1 1 1 1 1 1 1 1 1 
1 1 1 1 1 1 1 1 1 1 1 1 1 1 1 1 1 1 1 1 1 
1 1 1 1 1 1 1 1 1 1 1 1 1 1 1 1 1 1 1 1 1 
1 1 1 1 1 1 1 1 1 1 1 1 1 1 1 1 1 1 1 1 1 
1 1 1 1 1 1 1 1 1 1 1 1 1 1 1 1 1 1 1 1 1 
1 1 1 1 1 1 1 1 1 1 1 1 1 1 1 1 1 1 1 1 1 
1 1 1 1 1 1 1 1 1 1 1 1 1 1 1 1 1 1 1 1 1 
1 1 1 1 1 1 1 1 1 1 1 1 1 1 1 1 1 1 1 1 1 
1 1 1 1 1 1 1 1 1 1 1 1 1 1 1 1 1 1 1 1 1 
1 1 1 1 1 1 1 1 1 1 1 1 1 1 1 1 1 1 1 1 1 
1 1 1 1 1 1 1 1 1 1 1 1 1 1 1 1 1 1 1 1 1 
1 1 1 1 1 1 1 1 1 1 1 1 1 1 1 1 1 1 1 1 1 
1 1 1 1 1 1 1 1 1 1 1 1 1 1 1 1 1 1 1 1 1 
1 1 1 1 1 1 1 1 1 1 1 1 1 1 1 1 1 1 1 1 1 
1 1 1 1 1 1 1 1 1 1 1 1 1 1 1 1 1 1 1 1 1 
1 1 1 1 1 1 1 1 1 1 1 1 1 1 1 1 1 1 1 1 1 
1 1 1 1 1 1 1 1 1 1 1 1 1 1 1 1 1 1 1 1 1 
1 1 1 1 1 1 1 1 1 1 1 1 1 1 1 1 1 1 1 1 1 
1 1 1 1 1 1 1 1 1 1 1 1 1 1 1 1 1 1 1 1 1 
1 1 1 1 1 1 1 1 1 1 1 1 1 1 1 1 1 1 1 1 1 
1 1 1 1 1 1 1 1 1 1 1 1 1 1 1 1 1 1 1 1 1 
1 1 1 1 1 1 1 1 1 1 1 1 1 1 1 1 1 1 1 1 1 
1 1 1 1 1 1 1 1 1 1 1 1 1 1 1 1 1 1 1 1 1 
1 1 1 1 1 1 1 1 1 1 1 1 1 1 1 1 1 1 1 1 1 
</DataArray>
</PointData>
</Piece>
</ImageData>
</VTKFile>
