<VTKFile type="ImageData">
<ImageData Origin="0 -10 0" Spacing="0.5 0.5 1" WholeExtent="0 20 0 40 0 0">
<Piece Extent="0 20 0 40 0 0">
<PointData>
<DataArray Name="f" NumberOfComponents="1" format="ascii" type="Float64">
0.001107 0.001107 0.001107 0.001107 0.001107 0.001107 0.001107 0.001107 0.001107 0.001107 0.001107 0.001107 0.001107 0.001107 0.001107 0.001107 0.001107 0.001107 0.001107 0.001107 0.001107 
0.002591 0.002591 0.002591 0.002591 0.002591 0.002591 0.002591 0.002591 0.002591 0.002591 0.002591 0.002591 0.002591 0.002591 0.002591 0.002591 0.002591 0.002591 0.002591 0.002591 0.002591 
0.005648 0.005648 0.005648 0.005648 0.005648 0.005648 0.005648 0.005648 0.005648 0.005648 0.005648 0.005648 0.005648 0.005648 0.005648 0.005648 0.005648 0.005648 0.005648 0.005648 0.005648 
0.01146 0.01146 0.01146 0.01146 0.01146 0.01146 0.01146 0.01146 0.01146 0.01146 0.01146 0.01146 0.01146 0.01146 0.01146 0.01146 0.01146 0.01146 0.01146 0.01146 0.01146 
0.02164 0.02164 0.02164 0.02164 0.02164 0.02164 0.02164 0.02164 0.02164 0.02164 0.02164 0.02164 0.02164 0.02164 0.02164 0.02164 0.02164 0.02164 0.02164 0.02164 0.02164 
0.038 0.038 0.038 0.038 0.038 0.038 0.038 0.038 0.038 0.038 0.038 0.038 0.038 0.038 0.038 0.038 0.038 0.038 0.038 0.038 0.038 
0.06195 0.06195 0.06195 0.06195 0.06195 0.06195 0.06195 0.06195 0.06195 0.06195 0.06195 0.06195 0.06195 0.06195 0.06195 0.06195 0.06195 0.06195 0.06195 0.06195 0.06195 
0.09372 0.09372 0.09372 0.09372 0.09372 0.09372 0.09372 0.09372 0.09372 0.09372 0.09372 0.09372 0.09372 0.09372 0.09372 0.09372 0.09372 0.09372 0.09372 0.09372 0.09372 
0.1314 0.1314 0.1314 0.1314 0.1314 0.1314 0.1314 0.1314 0.1314 0.1314 0.1314 0.1314 0.1314 0.1314 0.1314 0.1314 0.1314 0.1314 0.1314 0.1314 0.1314 
0.1705 0.1705 0.1705 0.1705 0.1705 0.1705 0.1705 0.1705 0.1705 0.1705 0.1705 0.1705 0.1705 0.1705 0.1705 0.1705 0.1705 0.1705 0.1705 0.1705 0.1705 
0.2044 0.2044 0.2044 0.2044 0.2044 0.2044 0.2044 0.2044 0.2044 0.2044 0.2044 0.2044 0.2044 0.2044 0.2044 0.2044 0.2044 0.2044 0.2044 0.2044 0.2044 
0.2261 0.2261 0.2261 0.2261 0.2261 0.2261 0.2261 0.2261 0.2261 0.2261 0.2261 0.2261 0.2261 0.2261 0.2261 0.2261 0.2261 0.2261 0.2261 0.2261 0.2261 
0.2304 0.2304 0.2304 0.2304 0.2304 0.2304 0.2304 0.2304 0.2304 0.2304 0.2304 0.2304 0.2304 0.2304 0.2304 0.2304 0.2304 0.2304 0.2304 0.2304 0.2304 
0.2158 0.2158 0.2158 0.2158 0.2158 0.2158 0.2158 0.2158 0.2158 0.2158 0.2158 0.2158 0.2158 0.2158 0.2158 0.2158 0.2158 0.2158 0.2158 0.2158 0.2158 
0.1854 0.1854 0.1854 0.1854 0.1854 0.1854 0.1854 0.1854 0.1854 0.1854 0.1854 0.1854 0.1854 0.1854 0.1854 0.1854 0.1854 0.1854 0.1854 0.1854 0.1854 
0.1458 0.1458 0.1458 0.1458 0.1458 0.1458 0.1458 0.1458 0.1458 0.1458 0.1458 0.1458 0.1458 0.1458 0.1458 0.1458 0.1458 0.1458 0.1458 0.1458 0.1458 
0.1046 0.1046 0.1046 0.1046 0.1046 0.1046 0.1046 0.1046 0.1046 0.1046 0.1046 0.1046 0.1046 0.1046 0.1046 0.1046 0.1046 0.1046 0.1046 0.1046 0.1046 
0.06841 0.06841 0.06841 0.06841 0.06841 0.06841 0.06841 0.06841 0.06841 0.06841 0.06841 0.06841 0.06841 0.06841 0.06841 0.06841 0.06841 0.06841 0.06841 0.06841 0.06841 
0.04062 0.04062 0.04062 0.04062 0.04062 0.04062 0.04062 0.04062 0.04062 0.04062 0.04062 0.04062 0.04062 0.04062 0.04062 0.04062 0.04062 0.04062 0.04062 0.04062 0.04062 
0.02184 0.02184 0.02184 0.02184 0.02184 0.02184 0.02184 0.02184 0.02184 0.02184 0.02184 0.02184 0.02184 0.02184 0.02184 0.02184 0.02184 0.02184 0.02184 0.02184 0.02184 
0.0106 0.0106 0.0106 0.0106 0.0106 0.0106 0.0106 0.0106 0.0106 0.0106 0.0106 0.0106 0.0106 0.0106 0.0106 0.0106 0.0106 0.0106 0.0106 0.0106 0.0106 
0.004629 0.004628 0.004628 0.004628 0.004629 0.004629 0.004629 0.004629 0.004629 0.004629 0.004629 0.004629 0.004629 0.004629 0.004629 0.004629 0.004629 0.00463 0.00463 0.00463 0.004629 
0.001813 0.001813 0.001813 0.001813 0.001813 0.001813 0.001813 0.001813 0.001813 0.001813 0.001813 0.001813 0.001813 0.001813 0.001813 0.001813 0.001813 0.001813 0.001813 0.001813 0.001813 
0.0006347 0.0006347 0.0006346 0.0006346 0.0006346 0.0006346 0.0006346 0.0006346 0.0006346 0.0006346 0.0006346 0.0006346 0.0006347 0.0006347 0.0006347 0.0006347 0.0006347 0.0006347 0.0006348 0.0006348 0.0006347 
0.0001979 0.0001978 0.0001978 0.0001978 0.0001978 0.0001978 0.0001978 0.0001978 0.0001978 0.0001978 0.0001978 0.0001978 0.0001978 0.0001978 0.0001978 0.0001979 0.0001979 0.0001979 0.0001979 0.0001979 0.0001979 
5.473e-05 5.472e-05 5.472e-05 5.471e-05 5.471e-05 5.471e-05 5.471e-05 5.471e-05 5.471e-05 5.471e-05 5.471e-05 5.471e-05 5.472e-05 5.472e-05 5.472e-05 5.472e-05 5.472e-05 5.472e-05 5.473e-05 5.473e-05 5.473e-05 
1.338e-05 1.338e-05 1.338e-05 1.338e-05 1.337e-05 1.337e-05 1.337e-05 1.337e-05 1.337e-05 1.337e-05 1.337e-05 1.338e-05 1.338e-05 1.338e-05 1.338e-05 1.338e-05 1.338e-05 1.338e-05 1.338e-05 1.338e-05 1.338e-05 
2.88e-06 2.88e-06 2.88e-06 2.879e-06 2.879e-06 2.879e-06 2.879e-06 2.879e-06 2.879e-06 2.879e-06 2.879e-06 2.879e-06 2.879e-06 2.879e-06 2.879e-06 2.879e-06 2.879e-06 2.879e-06 2.88e-06 2.88e-06 2.88e-06 
5.437e-07 5.437e-07 5.436e-07 5.436e-07 5.436e-07 5.435e-07 5.435e-07 5.435e-07 5.435e-07 5.435e-07 5.435e-07 5.435e-07 5.435e-07 5.435e-07 5.435e-07 5.436e-07 5.436e-07 5.436e-07 5.436e-07 5.437e-07 5.437e-07 
8.983e-08 8.982e-08 8.982e-08 8.982e-08 8.981e-08 8.98e-08 8.979e-08 8.979e-08 8.979e-08 8.979e-08 8.979e-08 8.979e-08 8.979e-08 8.98e-08 8.98e-08 8.98e-08 8.981e-08 8.981e-08 8.982e-08 8.982e-08 8.983e-08 
1.381e-08 1.381e-08 1.381e-08 1.381e-08 1.381e-08 1.381e-08 1.38e-08 1.38e-08 1.38e-08 1.38e-08 1.38e-08 1.38e-08 1.38e-08 1.38e-08 1.38e-08 1.381e-08 1.381e-08 1.381e-08 1.381e-08 1.381e-08 1.381e-08 
6.399e-09 6.399e-09 6.399e-09 6.399e-09 6.399e-09 6.399e-09 6.399e-09 6.399e-09 6.399e-09 6.399e-09 6.399e-09 6.399e-09 6.399e-09 6.399e-09 6.399e-09 6.399e-09 6.399e-09 6.399e-09 6.399e-09 6.399e-09 6.399e-09 
2.281e-08 2.281e-08 2.281e-08 2.281e-08 2.281e-08 2.281e-08 2.281e-08 2.281e-08 2.281e-08 2.281e-08 2.281e-08 2.281e-08 2.281e-08 2.282e-08 2.282e-08 2.282e-08 2.282e-08 2.282e-08 2.282e-08 2.282e-08 2.281e-08 
9.947e-08 9.947e-08 9.947e-08 9.947e-08 9.947e-08 9.947e-08 9.947e-08 9.947e-08 9.947e-08 9.947e-08 9.947e-08 9.947e-08 9.947e-08 9.947e-08 9.948e-08 9.948e-08 9.948e-08 9.948e-08 9.948e-08 9.948e-08 9.947e-08 
4.071e-07 4.071e-07 4.071e-07 4.071e-07 4.071e-07 4.071e-07 4.071e-07 4.071e-07 4.071e-07 4.071e-07 4.07e-07 4.07e-07 4.071e-07 4.071e-07 4.071e-07 4.071e-07 4.071e-07 4.071e-07 4.071e-07 4.071e-07 4.071e-07 
1.553e-06 1.553e-06 1.553e-06 1.553e-06 1.553e-06 1.553e-06 1.553e-06 1.553e-06 1.553e-06 1.553e-06 1.553e-06 1.553e-06 1.553e-06 1.553e-06 1.553e-06 1.553e-06 1.553e-06 1.553e-06 1.553e-06 1.553e-06 1.553e-06 
5.526e-06 5.526e-06 5.526e-06 5.526e-06 5.526e-06 5.526e-06 5.526e-06 5.526e-06 5.526e-06 5.526e-06 5.526e-06 5.526e-06 5.526e-06 5.526e-06 5.526e-06 5.526e-06 5.526e-06 5.526e-06 5.526e-06 5.526e-06 5.526e-06 
1.834e-05 1.834e-05 1.834e-05 1.834e-05 1.834e-05 1.834e-05 1.834e-05 1.834e-05 1.834e-05 1.834e-05 1.834e-05 1.834e-05 1.834e-05 1.834e-05 1.834e-05 1.834e-05 1.834e-05 1.834e-05 1.834e-05 1.834e-05 1.834e-05 
5.676e-05 5.676e-05 5.676e-05 5.676e-05 5.676e-05 5.676e-05 5.676e-05 5.676e-05 5.676e-05 5.676e-05 5.676e-05 5.676e-05 5.676e-05 5.676e-05 5.675e-05 5.676e-05 5.676e-05 5.676e-05 5.676e-05 5.676e-05 5.676e-05 
0.0001639 0.0001639 0.0001639 0.0001639 0.0001639 0.0001639 0.0001639 0.0001639 0.0001639 0.0001639 0.0001639 0.0001639 0.0001639 0.0001639 0.0001639 0.0001639 0.0001639 0.0001639 0.0001639 0.0001639 0.0001639 
0.0004412 0.0004412 0.0004412 0.0004412 0.0004412 0.0004412 0.0004412 0.0004412 0.0004412 0.0004412 0.0004412 0.0004412 0.0004412 0.0004412 0.0004412 0.0004412 0.0004411 0.0004411 0.0004412 0.0004412 0.0004412 
</DataArray>
<DataArray Name="E" NumberOfComponents="1" format="ascii" type="Float64">
-0.9535 -0.9535 -0.9535 -0.9535 -0.9535 -0.9536 -0.9536 -0.9536 -0.9536 -0.9536 -0.9536 -0.9536 -0.9536 -0.9536 -0.9536 -0.9536 -0.9536 -0.9536 -0.9536 -0.9536 -0.9536 
-0.9535 -0.9535 -0.9535 -0.9535 -0.9535 -0.9536 -0.9536 -0.9536 -0.9536 -0.9536 -0.9536 -0.9536 -0.9536 -0.9536 -0.9536 -0.9536 -0.9536 -0.9536 -0.9536 -0.9536 -0.9536 
-0.9535 -0.9535 -0.9535 -0.9535 -0.9535 -0.9536 -0.9536 -0.9536 -0.9536 -0.9536 -0.9536 -0.9536 -0.9536 -0.9536 -0.9536 -0.9536 -0.9536 -0.9536 -0.9536 -0.9536 -0.9536 
-0.9535 -0.9535 -0.9535 -0.9535 -0.9535 -0.9536 -0.9536 -0.9536 -0.9536 -0.9536 -0.9536 -0.9536 -0.9536 -0.9536 -0.9536 -0.9536 -0.9536 -0.9536 -0.9536 -0.9536 -0.9536 
-0.9535 -0.9535 -0.9535 -0.9535 -0.9535 -0.9536 -0.9536 -0.9536 -0.9536 -0.9536 -0.9536 -0.9536 -0.9536 -0.9536 -0.9536 -0.9536 -0.9536 -0.9536 -0.9536 -0.9536 -0.9536 
-0.9535 -0.9535 -0.9535 -0.9535 -0.9535 -0.9536 -0.9536 -0.9536 -0.9536 -0.9536 -0.9536 -0.9536 -0.9536 -0.9536 -0.9536 -0.9536 -0.9536 -0.9536 -0.9536 -0.9536 -0.9536 
-0.9535 -0.9535 -0.9535 -0.9535 -0.9535 -0.9536 -0.9536 -0.9536 -0.9536 -0.9536 -0.9536 -0.9536 -0.9536 -0.9536 -0.9536 -0.9536 -0.9536 -0.9536 -0.9536 -0.9536 -0.9536 
-0.9535 -0.9535 -0.9535 -0.9535 -0.9535 -0.9536 -0.9536 -0.9536 -0.9536 -0.9536 -0.9536 -0.9536 -0.9536 -0.9536 -0.9536 -0.9536 -0.9536 -0.9536 -0.9536 -0.9536 -0.9536 
-0.9535 -0.9535 -0.9535 -0.9535 -0.9535 -0.9536 -0.9536 -0.9536 -0.9536 -0.9536 -0.9536 -0.9536 -0.9536 -0.9536 -0.9536 -0.9536 -0.9536 -0.9536 -0.9536 -0.9536 -0.9536 
-0.9535 -0.9535 -0.9535 -0.9535 -0.9535 -0.9536 -0.9536 -0.9536 -0.9536 -0.9536 -0.9536 -0.9536 -0.9536 -0.9536 -0.9536 -0.9536 -0.9536 -0.9536 -0.9536 -0.9536 -0.9536 
-0.9535 -0.9535 -0.9535 -0.9535 -0.9535 -0.9536 -0.9536 -0.9536 -0.9536 -0.9536 -0.9536 -0.9536 -0.9536 -0.9536 -0.9536 -0.9536 -0.9536 -0.9536 -0.9536 -0.9536 -0.9536 
-0.9535 -0.9535 -0.9535 -0.9535 -0.9535 -0.9536 -0.9536 -0.9536 -0.9536 -0.9536 -0.9536 -0.9536 -0.9536 -0.9536 -0.9536 -0.9536 -0.9536 -0.9536 -0.9536 -0.9536 -0.9536 
-0.9535 -0.9535 -0.9535 -0.9535 -0.9535 -0.9536 -0.9536 -0.9536 -0.9536 -0.9536 -0.9536 -0.9536 -0.9536 -0.9536 -0.9536 -0.9536 -0.9536 -0.9536 -0.9536 -0.9536 -0.9536 
-0.9535 -0.9535 -0.9535 -0.9535 -0.9535 -0.9536 -0.9536 -0.9536 -0.9536 -0.9536 -0.9536 -0.9536 -0.9536 -0.9536 -0.9536 -0.9536 -0.9536 -0.9536 -0.9536 -0.9536 -0.9536 
-0.9535 -0.9535 -0.9535 -0.9535 -0.9535 -0.9536 -0.9536 -0.9536 -0.9536 -0.9536 -0.9536 -0.9536 -0.9536 -0.9536 -0.9536 -0.9536 -0.9536 -0.9536 -0.9536 -0.9536 -0.9536 
-0.9535 -0.9535 -0.9535 -0.9535 -0.9535 -0.9536 -0.9536 -0.9536 -0.9536 -0.9536 -0.9536 -0.9536 -0.9536 -0.9536 -0.9536 -0.9536 -0.9536 -0.9536 -0.9536 -0.9536 -0.9536 
-0.9535 -0.9535 -0.9535 -0.9535 -0.9535 -0.9536 -0.9536 -0.9536 -0.9536 -0.9536 -0.9536 -0.9536 -0.9536 -0.9536 -0.9536 -0.9536 -0.9536 -0.9536 -0.9536 -0.9536 -0.9536 
-0.9535 -0.9535 -0.9535 -0.9535 -0.9535 -0.9536 -0.9536 -0.9536 -0.9536 -0.9536 -0.9536 -0.9536 -0.9536 -0.9536 -0.9536 -0.9536 -0.9536 -0.9536 -0.9536 -0.9536 -0.9536 
-0.9535 -0.9535 -0.9535 -0.9535 -0.9535 -0.9536 -0.9536 -0.9536 -0.9536 -0.9536 -0.9536 -0.9536 -0.9536 -0.9536 -0.9536 -0.9536 -0.9536 -0.9536 -0.9536 -0.9536 -0.9536 
-0.9535 -0.9535 -0.9535 -0.9535 -0.9535 -0.9536 -0.9536 -0.9536 -0.9536 -0.9536 -0.9536 -0.9536 -0.9536 -0.9536 -0.9536 -0.9536 -0.9536 -0.9536 -0.9536 -0.9536 -0.9536 
-0.9535 -0.9535 -0.9535 -0.9535 -0.9535 -0.9536 -0.9536 -0.9536 -0.9536 -0.9536 -0.9536 -0.9536 -0.9536 -0.9536 -0.9536 -0.9536 -0.9536 -0.9536 -0.9536 -0.9536 -0.9536 
-0.9535 -0.9535 -0.9535 -0.9535 -0.9535 -0.9536 -0.9536 -0.9536 -0.9536 -0.9536 -0.9536 -0.9536 -0.9536 -0.9536 -0.9536 -0.9536 -0.9536 -0.9536 -0.9536 -0.9536 -0.9536 
-0.9535 -0.9535 -0.9535 -0.9535 -0.9535 -0.9536 -0.9536 -0.9536 -0.9536 -0.9536 -0.9536 -0.9536 -0.9536 -0.9536 -0.9536 -0.9536 -0.9536 -0.9536 -0.9536 -0.9536 -0.9536 
-0.9535 -0.9535 -0.9535 -0.9535 -0.9535 -0.9536 -0.9536 -0.9536 -0.9536 -0.9536 -0.9536 -0.9536 -0.9536 -0.9536 -0.9536 -0.9536 -0.9536 -0.9536 -0.9536 -0.9536 -0.9536 
-0.9535 -0.9535 -0.9535 -0.9535 -0.9535 -0.9536 -0.9536 -0.9536 -0.9536 -0.9536 -0.9536 -0.9536 -0.9536 -0.9536 -0.9536 -0.9536 -0.9536 -0.9536 -0.9536 -0.9536 -0.9536 
-0.9535 -0.9535 -0.9535 -0.9535 -0.9535 -0.9536 -0.9536 -0.9536 -0.9536 -0.9536 -0.9536 -0.9536 -0.9536 -0.9536 -0.9536 -0.9536 -0.9536 -0.9536 -0.9536 -0.9536 -0.9536 
-0.9535 -0.9535 -0.9535 -0.9535 -0.9535 -0.9536 -0.9536 -0.9536 -0.9536 -0.9536 -0.9536 -0.9536 -0.9536 -0.9536 -0.9536 -0.9536 -0.9536 -0.9536 -0.9536 -0.9536 -0.9536 
-0.9535 -0.9535 -0.9535 -0.9535 -0.9535 -0.9536 -0.9536 -0.9536 -0.9536 -0.9536 -0.9536 -0.9536 -0.9536 -0.9536 -0.9536 -0.9536 -0.9536 -0.9536 -0.9536 -0.9536 -0.9536 
-0.9535 -0.9535 -0.9535 -0.9535 -0.9535 -0.9536 -0.9536 -0.9536 -0.9536 -0.9536 -0.9536 -0.9536 -0.9536 -0.9536 -0.9536 -0.9536 -0.9536 -0.9536 -0.9536 -0.9536 -0.9536 
-0.9535 -0.9535 -0.9535 -0.9535 -0.9535 -0.9536 -0.9536 -0.9536 -0.9536 -0.9536 -0.9536 -0.9536 -0.9536 -0.9536 -0.9536 -0.9536 -0.9536 -0.9536 -0.9536 -0.9536 -0.9536 
-0.9535 -0.9535 -0.9535 -0.9535 -0.9535 -0.9536 -0.9536 -0.9536 -0.9536 -0.9536 -0.9536 -0.9536 -0.9536 -0.9536 -0.9536 -0.9536 -0.9536 -0.9536 -0.9536 -0.9536 -0.9536 
-0.9535 -0.9535 -0.9535 -0.9535 -0.9535 -0.9536 -0.9536 -0.9536 -0.9536 -0.9536 -0.9536 -0.9536 -0.9536 -0.9536 -0.9536 -0.9536 -0.9536 -0.9536 -0.9536 -0.9536 -0.9536 
-0.9535 -0.9535 -0.9535 -0.9535 -0.9535 -0.9536 -0.9536 -0.9536 -0.9536 -0.9536 -0.9536 -0.9536 -0.9536 -0.9536 -0.9536 -0.9536 -0.9536 -0.9536 -0.9536 -0.9536 -0.9536 
-0.9535 -0.9535 -0.9535 -0.9535 -0.9535 -0.9536 -0.9536 -0.9536 -0.9536 -0.9536 -0.9536 -0.9536 -0.9536 -0.9536 -0.9536 -0.9536 -0.9536 -0.9536 -0.9536 -0.9536 -0.9536 
-0.9535 -0.9535 -0.9535 -0.9535 -0.9535 -0.9536 -0.9536 -0.9536 -0.9536 -0.9536 -0.9536 -0.9536 -0.9536 -0.9536 -0.9536 -0.9536 -0.9536 -0.9536 -0.9536 -0.9536 -0.9536 
-0.9535 -0.9535 -0.9535 -0.9535 -0.9535 -0.9536 -0.9536 -0.9536 -0.9536 -0.9536 -0.9536 -0.9536 -0.9536 -0.9536 -0.9536 -0.9536 -0.9536 -0.9536 -0.9536 -0.9536 -0.9536 
-0.9535 -0.9535 -0.9535 -0.9535 -0.9535 -0.9536 -0.9536 -0.9536 -0.9536 -0.9536 -0.9536 -0.9536 -0.9536 -0.9536 -0.9536 -0.9536 -0.9536 -0.9536 -0.9536 -0.9536 -0.9536 
-0.9535 -0.9535 -0.9535 -0.9535 -0.9535 -0.9536 -0.9536 -0.9536 -0.9536 -0.9536 -0.9536 -0.9536 -0.9536 -0.9536 -0.9536 -0.9536 -0.9536 -0.9536 -0.9536 -0.9536 -0.9536 
-0.9535 -0.9535 -0.9535 -0.9535 -0.9535 -0.9536 -0.9536 -0.9536 -0.9536 -0.9536 -0.9536 -0.9536 -0.9536 -0.9536 -0.9536 -0.9536 -0.9536 -0.9536 -0.9536 -0.9536 -0.9536 
-0.9535 -0.9535 -0.9535 -0.9535 -0.9535 -0.9536 -0.9536 -0.9536 -0.9536 -0.9536 -0.9536 -0.9536 -0.9536 -0.9536 -0.9536 -0.9536 -0.9536 -0.9536 -0.9536 -0.9536 -0.9536 
-0.9535 -0.9535 -0.9535 -0.9535 -0.9535 -0.9536 -0.9536 -0.9536 -0.9536 -0.9536 -0.9536 -0.9536 -0.9536 -0.9536 -0.9536 -0.9536 -0.9536 -0.9536 -0.9536 -0.9536 -0.9536 
</DataArray>
<DataArray Name="ne" NumberOfComponents="1" format="ascii" type="Float64">
0.9995 0.9995 0.9995 0.9995 0.9995 0.9995 0.9995 0.9995 0.9995 0.9996 0.9996 0.9996 0.9996 0.9996 0.9996 0.9996 0.9996 0.9996 0.9995 0.9995 0.9995 
0.9995 0.9995 0.9995 0.9995 0.9995 0.9995 0.9995 0.9995 0.9995 0.9996 0.9996 0.9996 0.9996 0.9996 0.9996 0.9996 0.9996 0.9996 0.9995 0.9995 0.9995 
0.9995 0.9995 0.9995 0.9995 0.9995 0.9995 0.9995 0.9995 0.9995 0.9996 0.9996 0.9996 0.9996 0.9996 0.9996 0.9996 0.9996 0.9996 0.9995 0.9995 0.9995 
0.9995 0.9995 0.9995 0.9995 0.9995 0.9995 0.9995 0.9995 0.9995 0.9996 0.9996 0.9996 0.9996 0.9996 0.9996 0.9996 0.9996 0.9996 0.9995 0.9995 0.9995 
0.9995 0.9995 0.9995 0.9995 0.9995 0.9995 0.9995 0.9995 0.9995 0.9996 0.9996 0.9996 0.9996 0.9996 0.9996 0.9996 0.9996 0.9996 0.9995 0.9995 0.9995 
0.9995 0.9995 0.9995 0.9995 0.9995 0.9995 0.9995 0.9995 0.9995 0.9996 0.9996 0.9996 0.9996 0.9996 0.9996 0.9996 0.9996 0.9996 0.9995 0.9995 0.9995 
0.9995 0.9995 0.9995 0.9995 0.9995 0.9995 0.9995 0.9995 0.9995 0.9996 0.9996 0.9996 0.9996 0.9996 0.9996 0.9996 0.9996 0.9996 0.9995 0.9995 0.9995 
0.9995 0.9995 0.9995 0.9995 0.9995 0.9995 0.9995 0.9995 0.9995 0.9996 0.9996 0.9996 0.9996 0.9996 0.9996 0.9996 0.9996 0.9996 0.9995 0.9995 0.9995 
0.9995 0.9995 0.9995 0.9995 0.9995 0.9995 0.9995 0.9995 0.9995 0.9996 0.9996 0.9996 0.9996 0.9996 0.9996 0.9996 0.9996 0.9996 0.9995 0.9995 0.9995 
0.9995 0.9995 0.9995 0.9995 0.9995 0.9995 0.9995 0.9995 0.9995 0.9996 0.9996 0.9996 0.9996 0.9996 0.9996 0.9996 0.9996 0.9996 0.9995 0.9995 0.9995 
0.9995 0.9995 0.9995 0.9995 0.9995 0.9995 0.9995 0.9995 0.9995 0.9996 0.9996 0.9996 0.9996 0.9996 0.9996 0.9996 0.9996 0.9996 0.9995 0.9995 0.9995 
0.9995 0.9995 0.9995 0.9995 0.9995 0.9995 0.9995 0.9995 0.9995 0.9996 0.9996 0.9996 0.9996 0.9996 0.9996 0.9996 0.9996 0.9996 0.9995 0.9995 0.9995 
0.9995 0.9995 0.9995 0.9995 0.9995 0.9995 0.9995 0.9995 0.9995 0.9996 0.9996 0.9996 0.9996 0.9996 0.9996 0.9996 0.9996 0.9996 0.9995 0.9995 0.9995 
0.9995 0.9995 0.9995 0.9995 0.9995 0.9995 0.9995 0.9995 0.9995 0.9996 0.9996 0.9996 0.9996 0.9996 0.9996 0.9996 0.9996 0.9996 0.9995 0.9995 0.9995 
0.9995 0.9995 0.9995 0.9995 0.9995 0.9995 0.9995 0.9995 0.9995 0.9996 0.9996 0.9996 0.9996 0.9996 0.9996 0.9996 0.9996 0.9996 0.9995 0.9995 0.9995 
0.9995 0.9995 0.9995 0.9995 0.9995 0.9995 0.9995 0.9995 0.9995 0.9996 0.9996 0.9996 0.9996 0.9996 0.9996 0.9996 0.9996 0.9996 0.9995 0.9995 0.9995 
0.9995 0.9995 0.9995 0.9995 0.9995 0.9995 0.9995 0.9995 0.9995 0.9996 0.9996 0.9996 0.9996 0.9996 0.9996 0.9996 0.9996 0.9996 0.9995 0.9995 0.9995 
0.9995 0.9995 0.9995 0.9995 0.9995 0.9995 0.9995 0.9995 0.9995 0.9996 0.9996 0.9996 0.9996 0.9996 0.9996 0.9996 0.9996 0.9996 0.9995 0.9995 0.9995 
0.9995 0.9995 0.9995 0.9995 0.9995 0.9995 0.9995 0.9995 0.9995 0.9996 0.9996 0.9996 0.9996 0.9996 0.9996 0.9996 0.9996 0.9996 0.9995 0.9995 0.9995 
0.9995 0.9995 0.9995 0.9995 0.9995 0.9995 0.9995 0.9995 0.9995 0.9996 0.9996 0.9996 0.9996 0.9996 0.9996 0.9996 0.9996 0.9996 0.9995 0.9995 0.9995 
0.9995 0.9995 0.9995 0.9995 0.9995 0.9995 0.9995 0.9995 0.9995 0.9996 0.9996 0.9996 0.9996 0.9996 0.9996 0.9996 0.9996 0.9996 0.9995 0.9995 0.9995 
0.9995 0.9995 0.9995 0.9995 0.9995 0.9995 0.9995 0.9995 0.9995 0.9996 0.9996 0.9996 0.9996 0.9996 0.9996 0.9996 0.9996 0.9996 0.9995 0.9995 0.9995 
0.9995 0.9995 0.9995 0.9995 0.9995 0.9995 0.9995 0.9995 0.9995 0.9996 0.9996 0.9996 0.9996 0.9996 0.9996 0.9996 0.9996 0.9996 0.9995 0.9995 0.9995 
0.9995 0.9995 0.9995 0.9995 0.9995 0.9995 0.9995 0.9995 0.9995 0.9996 0.9996 0.9996 0.9996 0.9996 0.9996 0.9996 0.9996 0.9996 0.9995 0.9995 0.9995 
0.9995 0.9995 0.9995 0.9995 0.9995 0.9995 0.9995 0.9995 0.9995 0.9996 0.9996 0.9996 0.9996 0.9996 0.9996 0.9996 0.9996 0.9996 0.9995 0.9995 0.9995 
0.9995 0.9995 0.9995 0.9995 0.9995 0.9995 0.9995 0.9995 0.9995 0.9996 0.9996 0.9996 0.9996 0.9996 0.9996 0.9996 0.9996 0.9996 0.9995 0.9995 0.9995 
0.9995 0.9995 0.9995 0.9995 0.9995 0.9995 0.9995 0.9995 0.9995 0.9996 0.9996 0.9996 0.9996 0.9996 0.9996 0.9996 0.9996 0.9996 0.9995 0.9995 0.9995 
0.9995 0.9995 0.9995 0.9995 0.9995 0.9995 0.9995 0.9995 0.9995 0.9996 0.9996 0.9996 0.9996 0.9996 0.9996 0.9996 0.9996 0.9996 0.9995 0.9995 0.9995 
0.9995 0.9995 0.9995 0.9995 0.9995 0.9995 0.9995 0.9995 0.9995 0.9996 0.9996 0.9996 0.9996 0.9996 0.9996 0.9996 0.9996 0.9996 0.9995 0.9995 0.9995 
0.9995 0.9995 0.9995 0.9995 0.9995 0.9995 0.9995 0.9995 0.9995 0.9996 0.9996 0.9996 0.9996 0.9996 0.9996 0.9996 0.9996 0.9996 0.9995 0.9995 0.9995 
0.9995 0.9995 0.9995 0.9995 0.9995 0.9995 0.9995 0.9995 0.9995 0.9996 0.9996 0.9996 0.9996 0.9996 0.9996 0.9996 0.9996 0.9996 0.9995 0.9995 0.9995 
0.9995 0.9995 0.9995 0.9995 0.9995 0.9995 0.9995 0.9995 0.9995 0.9996 0.9996 0.9996 0.9996 0.9996 0.9996 0.9996 0.9996 0.9996 0.9995 0.9995 0.9995 
0.9995 0.9995 0.9995 0.9995 0.9995 0.9995 0.9995 0.9995 0.9995 0.9996 0.9996 0.9996 0.9996 0.9996 0.9996 0.9996 0.9996 0.9996 0.9995 0.9995 0.9995 
0.9995 0.9995 0.9995 0.9995 0.9995 0.9995 0.9995 0.9995 0.9995 0.9996 0.9996 0.9996 0.9996 0.9996 0.9996 0.9996 0.9996 0.9996 0.9995 0.9995 0.9995 
0.9995 0.9995 0.9995 0.9995 0.9995 0.9995 0.9995 0.9995 0.9995 0.9996 0.9996 0.9996 0.9996 0.9996 0.9996 0.9996 0.9996 0.9996 0.9995 0.9995 0.9995 
0.9995 0.9995 0.9995 0.9995 0.9995 0.9995 0.9995 0.9995 0.9995 0.9996 0.9996 0.9996 0.9996 0.9996 0.9996 0.9996 0.9996 0.9996 0.9995 0.9995 0.9995 
0.9995 0.9995 0.9995 0.9995 0.9995 0.9995 0.9995 0.9995 0.9995 0.9996 0.9996 0.9996 0.9996 0.9996 0.9996 0.9996 0.9996 0.9996 0.9995 0.9995 0.9995 
0.9995 0.9995 0.9995 0.9995 0.9995 0.9995 0.9995 0.9995 0.9995 0.9996 0.9996 0.9996 0.9996 0.9996 0.9996 0.9996 0.9996 0.9996 0.9995 0.9995 0.9995 
0.9995 0.9995 0.9995 0.9995 0.9995 0.9995 0.9995 0.9995 0.9995 0.9996 0.9996 0.9996 0.9996 0.9996 0.9996 0.9996 0.9996 0.9996 0.9995 0.9995 0.9995 
0.9995 0.9995 0.9995 0.9995 0.9995 0.9995 0.9995 0.9995 0.9995 0.9996 0.9996 0.9996 0.9996 0.9996 0.9996 0.9996 0.9996 0.9996 0.9995 0.9995 0.9995 
0.9995 0.9995 0.9995 0.9995 0.9995 0.9995 0.9995 0.9995 0.9995 0.9996 0.9996 0.9996 0.9996 0.9996 0.9996 0.9996 0.9996 0.9996 0.9995 0.9995 0.9995 
</DataArray>
</PointData>
</Piece>
</ImageData>
</VTKFile>
