<VTKFile type="ImageData">
<ImageData Origin="0 -10 0" Spacing="0.5 0.5 1" WholeExtent="0 20 0 40 0 0">
<Piece Extent="0 20 0 40 0 0">
<PointData>
<DataArray Name="f" NumberOfComponents="1" format="ascii" type="Float64">
0 0 0 0 0 0 0 0 0 0 0 0 0 0 0 0 0 0 0 0 0 
1.008e-20 1.008e-20 1.008e-20 1.008e-20 1.008e-20 1.008e-20 1.008e-20 1.008e-20 1.008e-20 1.008e-20 1.008e-20 1.008e-20 1.008e-20 1.008e-20 1.008e-20 1.008e-20 1.008e-20 1.008e-20 1.008e-20 1.008e-20 1.008e-20 
1.028e-18 1.028e-18 1.028e-18 1.028e-18 1.028e-18 1.028e-18 1.028e-18 1.028e-18 1.028e-18 1.028e-18 1.028e-18 1.028e-18 1.028e-18 1.028e-18 1.028e-18 1.028e-18 1.028e-18 1.028e-18 1.028e-18 1.028e-18 1.028e-18 
8.166e-17 8.166e-17 8.166e-17 8.166e-17 8.166e-17 8.166e-17 8.166e-17 8.166e-17 8.166e-17 8.166e-17 8.166e-17 8.166e-17 8.166e-17 8.166e-17 8.166e-17 8.166e-17 8.166e-17 8.166e-17 8.166e-17 8.166e-17 8.166e-17 
5.052e-15 5.052e-15 5.052e-15 5.052e-15 5.052e-15 5.052e-15 5.052e-15 5.052e-15 5.052e-15 5.052e-15 5.052e-15 5.052e-15 5.052e-15 5.052e-15 5.052e-15 5.052e-15 5.052e-15 5.052e-15 5.052e-15 5.052e-15 5.052e-15 
2.434e-13 2.434e-13 2.434e-13 2.434e-13 2.434e-13 2.434e-13 2.434e-13 2.434e-13 2.434e-13 2.434e-13 2.434e-13 2.434e-13 2.434e-13 2.434e-13 2.434e-13 2.434e-13 2.434e-13 2.434e-13 2.434e-13 2.434e-13 2.434e-13 
9.135e-12 9.135e-12 9.135e-12 9.135e-12 9.135e-12 9.135e-12 9.135e-12 9.135e-12 9.135e-12 9.135e-12 9.135e-12 9.135e-12 9.135e-12 9.135e-12 9.135e-12 9.135e-12 9.135e-12 9.135e-12 9.135e-12 9.135e-12 9.135e-12 
2.67e-10 2.67e-10 2.67e-10 2.67e-10 2.67e-10 2.67e-10 2.67e-10 2.67e-10 2.67e-10 2.67e-10 2.67e-10 2.67e-10 2.67e-10 2.67e-10 2.67e-10 2.67e-10 2.67e-10 2.67e-10 2.67e-10 2.67e-10 2.67e-10 
6.076e-09 6.076e-09 6.076e-09 6.076e-09 6.076e-09 6.076e-09 6.076e-09 6.076e-09 6.076e-09 6.076e-09 6.076e-09 6.076e-09 6.076e-09 6.076e-09 6.076e-09 6.076e-09 6.076e-09 6.076e-09 6.076e-09 6.076e-09 6.076e-09 
1.077e-07 1.077e-07 1.077e-07 1.077e-07 1.077e-07 1.077e-07 1.077e-07 1.077e-07 1.077e-07 1.077e-07 1.077e-07 1.077e-07 1.077e-07 1.077e-07 1.077e-07 1.077e-07 1.077e-07 1.077e-07 1.077e-07 1.077e-07 1.077e-07 
1.487e-06 1.487e-06 1.487e-06 1.487e-06 1.487e-06 1.487e-06 1.487e-06 1.487e-06 1.487e-06 1.487e-06 1.487e-06 1.487e-06 1.487e-06 1.487e-06 1.487e-06 1.487e-06 1.487e-06 1.487e-06 1.487e-06 1.487e-06 1.487e-06 
1.598e-05 1.598e-05 1.598e-05 1.598e-05 1.598e-05 1.598e-05 1.598e-05 1.598e-05 1.598e-05 1.598e-05 1.598e-05 1.598e-05 1.598e-05 1.598e-05 1.598e-05 1.598e-05 1.598e-05 1.598e-05 1.598e-05 1.598e-05 1.598e-05 
0.0001338 0.0001338 0.0001338 0.0001338 0.0001338 0.0001338 0.0001338 0.0001338 0.0001338 0.0001338 0.0001338 0.0001338 0.0001338 0.0001338 0.0001338 0.0001338 0.0001338 0.0001338 0.0001338 0.0001338 0.0001338 
0.0008727 0.0008727 0.0008727 0.0008727 0.0008727 0.0008727 0.0008727 0.0008727 0.0008727 0.0008727 0.0008727 0.0008727 0.0008727 0.0008727 0.0008727 0.0008727 0.0008727 0.0008727 0.0008727 0.0008727 0.0008727 
0.004432 0.004432 0.004432 0.004432 0.004432 0.004432 0.004432 0.004432 0.004432 0.004432 0.004432 0.004432 0.004432 0.004432 0.004432 0.004432 0.004432 0.004432 0.004432 0.004432 0.004432 
0.01753 0.01753 0.01753 0.01753 0.01753 0.01753 0.01753 0.01753 0.01753 0.01753 0.01753 0.01753 0.01753 0.01753 0.01753 0.01753 0.01753 0.01753 0.01753 0.01753 0.01753 
0.05399 0.05399 0.05399 0.05399 0.05399 0.05399 0.05399 0.05399 0.05399 0.05399 0.05399 0.05399 0.05399 0.05399 0.05399 0.05399 0.05399 0.05399 0.05399 0.05399 0.05399 
0.1295 0.1295 0.1295 0.1295 0.1295 0.1295 0.1295 0.1295 0.1295 0.1295 0.1295 0.1295 0.1295 0.1295 0.1295 0.1295 0.1295 0.1295 0.1295 0.1295 0.1295 
0.242 0.242 0.242 0.242 0.242 0.242 0.242 0.242 0.242 0.242 0.242 0.242 0.242 0.242 0.242 0.242 0.242 0.242 0.242 0.242 0.242 
0.3521 0.3521 0.3521 0.3521 0.3521 0.3521 0.3521 0.3521 0.3521 0.3521 0.3521 0.3521 0.3521 0.3521 0.3521 0.3521 0.3521 0.3521 0.3521 0.3521 0.3521 
0.3989 0.3989 0.3989 0.3989 0.3989 0.3989 0.3989 0.3989 0.3989 0.3989 0.3989 0.3989 0.3989 0.3989 0.3989 0.3989 0.3989 0.3989 0.3989 0.3989 0.3989 
0.3521 0.3521 0.3521 0.3521 0.3521 0.3521 0.3521 0.3521 0.3521 0.3521 0.3521 0.3521 0.3521 0.3521 0.3521 0.3521 0.3521 0.3521 0.3521 0.3521 0.3521 
0.242 0.242 0.242 0.242 0.242 0.242 0.242 0.242 0.242 0.242 0.242 0.242 0.242 0.242 0.242 0.242 0.242 0.242 0.242 0.242 0.242 
0.1295 0.1295 0.1295 0.1295 0.1295 0.1295 0.1295 0.1295 0.1295 0.1295 0.1295 0.1295 0.1295 0.1295 0.1295 0.1295 0.1295 0.1295 0.1295 0.1295 0.1295 
0.05399 0.05399 0.05399 0.05399 0.05399 0.05399 0.05399 0.05399 0.05399 0.05399 0.05399 0.05399 0.05399 0.05399 0.05399 0.05399 0.05399 0.05399 0.05399 0.05399 0.05399 
0.01753 0.01753 0.01753 0.01753 0.01753 0.01753 0.01753 0.01753 0.01753 0.01753 0.01753 0.01753 0.01753 0.01753 0.01753 0.01753 0.01753 0.01753 0.01753 0.01753 0.01753 
0.004432 0.004432 0.004432 0.004432 0.004432 0.004432 0.004432 0.004432 0.004432 0.004432 0.004432 0.004432 0.004432 0.004432 0.004432 0.004432 0.004432 0.004432 0.004432 0.004432 0.004432 
0.0008727 0.0008727 0.0008727 0.0008727 0.0008727 0.0008727 0.0008727 0.0008727 0.0008727 0.0008727 0.0008727 0.0008727 0.0008727 0.0008727 0.0008727 0.0008727 0.0008727 0.0008727 0.0008727 0.0008727 0.0008727 
0.0001338 0.0001338 0.0001338 0.0001338 0.0001338 0.0001338 0.0001338 0.0001338 0.0001338 0.0001338 0.0001338 0.0001338 0.0001338 0.0001338 0.0001338 0.0001338 0.0001338 0.0001338 0.0001338 0.0001338 0.0001338 
1.598e-05 1.598e-05 1.598e-05 1.598e-05 1.598e-05 1.598e-05 1.598e-05 1.598e-05 1.598e-05 1.598e-05 1.598e-05 1.598e-05 1.598e-05 1.598e-05 1.598e-05 1.598e-05 1.598e-05 1.598e-05 1.598e-05 1.598e-05 1.598e-05 
1.487e-06 1.487e-06 1.487e-06 1.487e-06 1.487e-06 1.487e-06 1.487e-06 1.487e-06 1.487e-06 1.487e-06 1.487e-06 1.487e-06 1.487e-06 1.487e-06 1.487e-06 1.487e-06 1.487e-06 1.487e-06 1.487e-06 1.487e-06 1.487e-06 
1.077e-07 1.077e-07 1.077e-07 1.077e-07 1.077e-07 1.077e-07 1.077e-07 1.077e-07 1.077e-07 1.077e-07 1.077e-07 1.077e-07 1.077e-07 1.077e-07 1.077e-07 1.077e-07 1.077e-07 1.077e-07 1.077e-07 1.077e-07 1.077e-07 
6.076e-09 6.076e-09 6.076e-09 6.076e-09 6.076e-09 6.076e-09 6.076e-09 6.076e-09 6.076e-09 6.076e-09 6.076e-09 6.076e-09 6.076e-09 6.076e-09 6.076e-09 6.076e-09 6.076e-09 6.076e-09 6.076e-09 6.076e-09 6.076e-09 
2.67e-10 2.67e-10 2.67e-10 2.67e-10 2.67e-10 2.67e-10 2.67e-10 2.67e-10 2.67e-10 2.67e-10 2.67e-10 2.67e-10 2.67e-10 2.67e-10 2.67e-10 2.67e-10 2.67e-10 2.67e-10 2.67e-10 2.67e-10 2.67e-10 
9.135e-12 9.135e-12 9.135e-12 9.135e-12 9.135e-12 9.135e-12 9.135e-12 9.135e-12 9.135e-12 9.135e-12 9.135e-12 9.135e-12 9.135e-12 9.135e-12 9.135e-12 9.135e-12 9.135e-12 9.135e-12 9.135e-12 9.135e-12 9.135e-12 
2.434e-13 2.434e-13 2.434e-13 2.434e-13 2.434e-13 2.434e-13 2.434e-13 2.434e-13 2.434e-13 2.434e-13 2.434e-13 2.434e-13 2.434e-13 2.434e-13 2.434e-13 2.434e-13 2.434e-13 2.434e-13 2.434e-13 2.434e-13 2.434e-13 
5.052e-15 5.052e-15 5.052e-15 5.052e-15 5.052e-15 5.052e-15 5.052e-15 5.052e-15 5.052e-15 5.052e-15 5.052e-15 5.052e-15 5.052e-15 5.052e-15 5.052e-15 5.052e-15 5.052e-15 5.052e-15 5.052e-15 5.052e-15 5.052e-15 
8.166e-17 8.166e-17 8.166e-17 8.166e-17 8.166e-17 8.166e-17 8.166e-17 8.166e-17 8.166e-17 8.166e-17 8.166e-17 8.166e-17 8.166e-17 8.166e-17 8.166e-17 8.166e-17 8.166e-17 8.166e-17 8.166e-17 8.166e-17 8.166e-17 
1.028e-18 1.028e-18 1.028e-18 1.028e-18 1.028e-18 1.028e-18 1.028e-18 1.028e-18 1.028e-18 1.028e-18 1.028e-18 1.028e-18 1.028e-18 1.028e-18 1.028e-18 1.028e-18 1.028e-18 1.028e-18 1.028e-18 1.028e-18 1.028e-18 
1.008e-20 1.008e-20 1.008e-20 1.008e-20 1.008e-20 1.008e-20 1.008e-20 1.008e-20 1.008e-20 1.008e-20 1.008e-20 1.008e-20 1.008e-20 1.008e-20 1.008e-20 1.008e-20 1.008e-20 1.008e-20 1.008e-20 1.008e-20 1.008e-20 
0 0 0 0 0 0 0 0 0 0 0 0 0 0 0 0 0 0 0 0 0 
</DataArray>
<DataArray Name="E" NumberOfComponents="1" format="ascii" type="Float64">
1 1 1 1 1 1 1 1 1 1 1 1 1 1 1 1 1 1 1 1 1 
1 1 1 1 1 1 1 1 1 1 1 1 1 1 1 1 1 1 1 1 1 
1 1 1 1 1 1 1 1 1 1 1 1 1 1 1 1 1 1 1 1 1 
1 1 1 1 1 1 1 1 1 1 1 1 1 1 1 1 1 1 1 1 1 
1 1 1 1 1 1 1 1 1 1 1 1 1 1 1 1 1 1 1 1 1 
1 1 1 1 1 1 1 1 1 1 1 1 1 1 1 1 1 1 1 1 1 
1 1 1 1 1 1 1 1 1 1 1 1 1 1 1 1 1 1 1 1 1 
1 1 1 1 1 1 1 1 1 1 1 1 1 1 1 1 1 1 1 1 1 
1 1 1 1 1 1 1 1 1 1 1 1 1 1 1 1 1 1 1 1 1 
1 1 1 1 1 1 1 1 1 1 1 1 1 1 1 1 1 1 1 1 1 
1 1 1 1 1 1 1 1 1 1 1 1 1 1 1 1 1 1 1 1 1 
1 1 1 1 1 1 1 1 1 1 1 1 1 1 1 1 1 1 1 1 1 
1 1 1 1 1 1 1 1 1 1 1 1 1 1 1 1 1 1 1 1 1 
1 1 1 1 1 1 1 1 1 1 1 1 1 1 1 1 1 1 1 1 1 
1 1 1 1 1 1 1 1 1 1 1 1 1 1 1 1 1 1 1 1 1 
1 1 1 1 1 1 1 1 1 1 1 1 1 1 1 1 1 1 1 1 1 
1 1 1 1 1 1 1 1 1 1 1 1 1 1 1 1 1 1 1 1 1 
1 1 1 1 1 1 1 1 1 1 1 1 1 1 1 1 1 1 1 1 1 
1 1 1 1 1 1 1 1 1 1 1 1 1 1 1 1 1 1 1 1 1 
1 1 1 1 1 1 1 1 1 1 1 1 1 1 1 1 1 1 1 1 1 
1 1 1 1 1 1 1 1 1 1 1 1 1 1 1 1 1 1 1 1 1 
1 1 1 1 1 1 1 1 1 1 1 1 1 1 1 1 1 1 1 1 1 
1 1 1 1 1 1 1 1 1 1 1 1 1 1 1 1 1 1 1 1 1 
1 1 1 1 1 1 1 1 1 1 1 1 1 1 1 1 1 1 1 1 1 
1 1 1 1 1 1 1 1 1 1 1 1 1 1 1 1 1 1 1 1 1 
1 1 1 1 1 1 1 1 1 1 1 1 1 1 1 1 1 1 1 1 1 
1 1 1 1 1 1 1 1 1 1 1 1 1 1 1 1 1 1 1 1 1 
1 1 1 1 1 1 1 1 1 1 1 1 1 1 1 1 1 1 1 1 1 
1 1 1 1 1 1 1 1 1 1 1 1 1 1 1 1 1 1 1 1 1 
1 1 1 1 1 1 1 1 1 1 1 1 1 1 1 1 1 1 1 1 1 
1 1 1 1 1 1 1 1 1 1 1 1 1 1 1 1 1 1 1 1 1 
1 1 1 1 1 1 1 1 1 1 1 1 1 1 1 1 1 1 1 1 1 
1 1 1 1 1 1 1 1 1 1 1 1 1 1 1 1 1 1 1 1 1 
1 1 1 1 1 1 1 1 1 1 1 1 1 1 1 1 1 1 1 1 1 
1 1 1 1 1 1 1 1 1 1 1 1 1 1 1 1 1 1 1 1 1 
1 1 1 1 1 1 1 1 1 1 1 1 1 1 1 1 1 1 1 1 1 
1 1 1 1 1 1 1 1 1 1 1 1 1 1 1 1 1 1 1 1 1 
1 1 1 1 1 1 1 1 1 1 1 1 1 1 1 1 1 1 1 1 1 
1 1 1 1 1 1 1 1 1 1 1 1 1 1 1 1 1 1 1 1 1 
1 1 1 1 1 1 1 1 1 1 1 1 1 1 1 1 1 1 1 1 1 
1 1 1 1 1 1 1 1 1 1 1 1 1 1 1 1 1 1 1 1 1 
</DataArray>
<DataArray Name="ne" NumberOfComponents="1" format="ascii" type="Float64">
0 0 0 0 0 0 0 0 0 0 0 0 0 0 0 0 0 0 0 0 0 
0 0 0 0 0 0 0 0 0 0 0 0 0 0 0 0 0 0 0 0 0 
0 0 0 0 0 0 0 0 0 0 0 0 0 0 0 0 0 0 0 0 0 
0 0 0 0 0 0 0 0 0 0 0 0 0 0 0 0 0 0 0 0 0 
0 0 0 0 0 0 0 0 0 0 0 0 0 0 0 0 0 0 0 0 0 
0 0 0 0 0 0 0 0 0 0 0 0 0 0 0 0 0 0 0 0 0 
0 0 0 0 0 0 0 0 0 0 0 0 0 0 0 0 0 0 0 0 0 
0 0 0 0 0 0 0 0 0 0 0 0 0 0 0 0 0 0 0 0 0 
0 0 0 0 0 0 0 0 0 0 0 0 0 0 0 0 0 0 0 0 0 
0 0 0 0 0 0 0 0 0 0 0 0 0 0 0 0 0 0 0 0 0 
0 0 0 0 0 0 0 0 0 0 0 0 0 0 0 0 0 0 0 0 0 
0 0 0 0 0 0 0 0 0 0 0 0 0 0 0 0 0 0 0 0 0 
0 0 0 0 0 0 0 0 0 0 0 0 0 0 0 0 0 0 0 0 0 
0 0 0 0 0 0 0 0 0 0 0 0 0 0 0 0 0 0 0 0 0 
0 0 0 0 0 0 0 0 0 0 0 0 0 0 0 0 0 0 0 0 0 
0 0 0 0 0 0 0 0 0 0 0 0 0 0 0 0 0 0 0 0 0 
0 0 0 0 0 0 0 0 0 0 0 0 0 0 0 0 0 0 0 0 0 
0 0 0 0 0 0 0 0 0 0 0 0 0 0 0 0 0 0 0 0 0 
0 0 0 0 0 0 0 0 0 0 0 0 0 0 0 0 0 0 0 0 0 
0 0 0 0 0 0 0 0 0 0 0 0 0 0 0 0 0 0 0 0 0 
0 0 0 0 0 0 0 0 0 0 0 0 0 0 0 0 0 0 0 0 0 
0 0 0 0 0 0 0 0 0 0 0 0 0 0 0 0 0 0 0 0 0 
0 0 0 0 0 0 0 0 0 0 0 0 0 0 0 0 0 0 0 0 0 
0 0 0 0 0 0 0 0 0 0 0 0 0 0 0 0 0 0 0 0 0 
0 0 0 0 0 0 0 0 0 0 0 0 0 0 0 0 0 0 0 0 0 
0 0 0 0 0 0 0 0 0 0 0 0 0 0 0 0 0 0 0 0 0 
0 0 0 0 0 0 0 0 0 0 0 0 0 0 0 0 0 0 0 0 0 
0 0 0 0 0 0 0 0 0 0 0 0 0 0 0 0 0 0 0 0 0 
0 0 0 0 0 0 0 0 0 0 0 0 0 0 0 0 0 0 0 0 0 
0 0 0 0 0 0 0 0 0 0 0 0 0 0 0 0 0 0 0 0 0 
0 0 0 0 0 0 0 0 0 0 0 0 0 0 0 0 0 0 0 0 0 
0 0 0 0 0 0 0 0 0 0 0 0 0 0 0 0 0 0 0 0 0 
0 0 0 0 0 0 0 0 0 0 0 0 0 0 0 0 0 0 0 0 0 
0 0 0 0 0 0 0 0 0 0 0 0 0 0 0 0 0 0 0 0 0 
0 0 0 0 0 0 0 0 0 0 0 0 0 0 0 0 0 0 0 0 0 
0 0 0 0 0 0 0 0 0 0 0 0 0 0 0 0 0 0 0 0 0 
0 0 0 0 0 0 0 0 0 0 0 0 0 0 0 0 0 0 0 0 0 
0 0 0 0 0 0 0 0 0 0 0 0 0 0 0 0 0 0 0 0 0 
0 0 0 0 0 0 0 0 0 0 0 0 0 0 0 0 0 0 0 0 0 
0 0 0 0 0 0 0 0 0 0 0 0 0 0 0 0 0 0 0 0 0 
0 0 0 0 0 0 0 0 0 0 0 0 0 0 0 0 0 0 0 0 0 
</DataArray>
</PointData>
</Piece>
</ImageData>
</VTKFile>
