<VTKFile type="ImageData">
<ImageData Origin="0 -10 0" Spacing="0.5 0.5 1" WholeExtent="0 20 0 40 0 0">
<Piece Extent="0 20 0 40 0 0">
<PointData>
<DataArray Name="f" NumberOfComponents="1" format="ascii" type="Float64">
4.217e-05 4.217e-05 4.217e-05 4.217e-05 4.217e-05 4.217e-05 4.217e-05 4.217e-05 4.217e-05 4.217e-05 4.217e-05 4.217e-05 4.217e-05 4.217e-05 4.217e-05 4.217e-05 4.217e-05 4.217e-05 4.217e-05 4.217e-05 4.217e-05 
0.0001145 0.0001145 0.0001145 0.0001145 0.0001145 0.0001145 0.0001145 0.0001145 0.0001145 0.0001145 0.0001145 0.0001145 0.0001145 0.0001145 0.0001145 0.0001145 0.0001145 0.0001145 0.0001145 0.0001145 0.0001145 
0.0002924 0.0002924 0.0002924 0.0002924 0.0002924 0.0002924 0.0002924 0.0002924 0.0002924 0.0002924 0.0002924 0.0002924 0.0002924 0.0002924 0.0002924 0.0002924 0.0002924 0.0002924 0.0002924 0.0002924 0.0002924 
0.0007015 0.0007015 0.0007015 0.0007015 0.0007015 0.0007015 0.0007015 0.0007015 0.0007015 0.0007015 0.0007015 0.0007015 0.0007015 0.0007015 0.0007015 0.0007015 0.0007015 0.0007015 0.0007015 0.0007015 0.0007015 
0.001582 0.001582 0.001582 0.001582 0.001582 0.001582 0.001582 0.001582 0.001582 0.001582 0.001582 0.001582 0.001582 0.001582 0.001582 0.001582 0.001582 0.001582 0.001582 0.001582 0.001582 
0.003354 0.003354 0.003354 0.003354 0.003354 0.003354 0.003354 0.003354 0.003354 0.003354 0.003354 0.003354 0.003354 0.003354 0.003354 0.003354 0.003354 0.003354 0.003354 0.003354 0.003354 
0.006682 0.006682 0.006682 0.006682 0.006682 0.006682 0.006682 0.006682 0.006682 0.006682 0.006682 0.006682 0.006682 0.006682 0.006682 0.006682 0.006682 0.006682 0.006682 0.006682 0.006682 
0.01251 0.01251 0.01251 0.01251 0.01251 0.01251 0.01251 0.01251 0.01251 0.01251 0.01251 0.01251 0.01251 0.01251 0.01251 0.01251 0.01251 0.01251 0.01251 0.01251 0.01251 
0.02201 0.02201 0.02201 0.02201 0.02201 0.02201 0.02201 0.02201 0.02201 0.02201 0.02201 0.02201 0.02201 0.02201 0.02201 0.02201 0.02201 0.02201 0.02201 0.02201 0.02201 
0.03636 0.03636 0.03636 0.03636 0.03636 0.03636 0.03636 0.03636 0.03636 0.03636 0.03636 0.03636 0.03636 0.03636 0.03636 0.03636 0.03636 0.03636 0.03636 0.03636 0.03636 
0.05642 0.05642 0.05642 0.05642 0.05642 0.05642 0.05642 0.05642 0.05642 0.05642 0.05642 0.05642 0.05642 0.05642 0.05642 0.05642 0.05642 0.05642 0.05642 0.05642 0.05642 
0.08217 0.08217 0.08217 0.08217 0.08217 0.08217 0.08217 0.08217 0.08217 0.08217 0.08217 0.08217 0.08217 0.08217 0.08217 0.08217 0.08217 0.08217 0.08217 0.08217 0.08217 
0.1123 0.1123 0.1123 0.1123 0.1123 0.1123 0.1123 0.1123 0.1123 0.1123 0.1123 0.1123 0.1123 0.1123 0.1123 0.1123 0.1123 0.1123 0.1123 0.1123 0.1123 
0.1439 0.1439 0.1439 0.1439 0.1439 0.1439 0.1439 0.1439 0.1439 0.1439 0.1439 0.1439 0.1439 0.1439 0.1439 0.1439 0.1439 0.1439 0.1439 0.1439 0.1439 
0.173 0.173 0.173 0.173 0.173 0.173 0.173 0.173 0.173 0.173 0.173 0.173 0.173 0.173 0.173 0.173 0.173 0.173 0.173 0.173 0.173 
0.1947 0.1947 0.1947 0.1947 0.1947 0.1947 0.1947 0.1947 0.1947 0.1947 0.1947 0.1947 0.1947 0.1947 0.1947 0.1947 0.1947 0.1947 0.1947 0.1947 0.1947 
0.2053 0.2053 0.2053 0.2053 0.2053 0.2053 0.2053 0.2053 0.2053 0.2053 0.2053 0.2053 0.2053 0.2053 0.2053 0.2053 0.2053 0.2053 0.2053 0.2053 0.2053 
0.2026 0.2026 0.2026 0.2026 0.2026 0.2026 0.2026 0.2026 0.2026 0.2026 0.2026 0.2026 0.2026 0.2026 0.2026 0.2026 0.2026 0.2026 0.2026 0.2026 0.2026 
0.187 0.187 0.187 0.187 0.187 0.187 0.187 0.187 0.187 0.187 0.187 0.187 0.187 0.187 0.187 0.187 0.187 0.187 0.187 0.187 0.187 
0.1612 0.1612 0.1612 0.1612 0.1612 0.1612 0.1612 0.1612 0.1612 0.1612 0.1612 0.1612 0.1612 0.1612 0.1612 0.1612 0.1612 0.1612 0.1612 0.1612 0.1612 
0.1299 0.1299 0.1299 0.1299 0.1299 0.1299 0.1299 0.1299 0.1299 0.1299 0.1299 0.1299 0.1299 0.1299 0.1299 0.1299 0.1299 0.1299 0.1299 0.1299 0.1299 
0.0976 0.0976 0.0976 0.0976 0.0976 0.0976 0.0976 0.0976 0.0976 0.0976 0.0976 0.0976 0.0976 0.0976 0.0976 0.0976 0.0976 0.0976 0.0976 0.0976 0.0976 
0.06839 0.06839 0.06839 0.06839 0.06839 0.06839 0.06839 0.06839 0.06839 0.06839 0.06839 0.06839 0.06839 0.06839 0.06839 0.06839 0.06839 0.06839 0.06839 0.06839 0.06839 
0.04463 0.04463 0.04463 0.04463 0.04463 0.04463 0.04463 0.04463 0.04463 0.04463 0.04463 0.04463 0.04463 0.04463 0.04463 0.04463 0.04463 0.04463 0.04463 0.04463 0.04463 
0.02711 0.02711 0.0271 0.0271 0.0271 0.0271 0.0271 0.0271 0.0271 0.0271 0.0271 0.02711 0.02711 0.02711 0.02711 0.02711 0.02711 0.02711 0.02711 0.02711 0.02711 
0.0153 0.0153 0.0153 0.0153 0.0153 0.0153 0.0153 0.0153 0.0153 0.0153 0.0153 0.0153 0.0153 0.0153 0.0153 0.0153 0.0153 0.0153 0.0153 0.0153 0.0153 
0.008022 0.008022 0.008022 0.008022 0.008022 0.008022 0.008021 0.008021 0.008021 0.008021 0.008021 0.008021 0.008021 0.008021 0.008022 0.008022 0.008022 0.008022 0.008022 0.008022 0.008022 
0.0039 0.0039 0.0039 0.0039 0.0039 0.0039 0.0039 0.0039 0.0039 0.0039 0.0039 0.0039 0.0039 0.0039 0.0039 0.0039 0.0039 0.0039 0.0039 0.0039 0.0039 
0.001757 0.001757 0.001757 0.001757 0.001757 0.001757 0.001757 0.001757 0.001757 0.001757 0.001757 0.001756 0.001756 0.001756 0.001756 0.001757 0.001757 0.001757 0.001757 0.001757 0.001757 
0.0007319 0.0007319 0.000732 0.000732 0.000732 0.000732 0.000732 0.000732 0.0007319 0.0007319 0.0007319 0.0007319 0.0007319 0.0007319 0.0007319 0.0007319 0.0007319 0.0007319 0.0007319 0.0007319 0.0007319 
0.0002817 0.0002817 0.0002817 0.0002817 0.0002817 0.0002818 0.0002818 0.0002818 0.0002818 0.0002817 0.0002817 0.0002817 0.0002817 0.0002817 0.0002817 0.0002817 0.0002817 0.0002817 0.0002817 0.0002817 0.0002817 
0.0001 0.0001 0.0001 0.0001 0.0001 0.0001 0.0001 0.0001 0.0001 0.0001 0.0001 0.0001 0.0001 0.0001 0.0001 0.0001 0.0001 0.0001 0.0001 0.0001 0.0001 
3.271e-05 3.271e-05 3.271e-05 3.271e-05 3.271e-05 3.271e-05 3.271e-05 3.271e-05 3.271e-05 3.271e-05 3.271e-05 3.271e-05 3.271e-05 3.271e-05 3.271e-05 3.271e-05 3.271e-05 3.271e-05 3.271e-05 3.271e-05 3.271e-05 
9.833e-06 9.833e-06 9.833e-06 9.834e-06 9.834e-06 9.834e-06 9.834e-06 9.835e-06 9.835e-06 9.835e-06 9.835e-06 9.835e-06 9.835e-06 9.835e-06 9.835e-06 9.835e-06 9.834e-06 9.834e-06 9.834e-06 9.834e-06 9.833e-06 
2.719e-06 2.719e-06 2.719e-06 2.719e-06 2.719e-06 2.719e-06 2.719e-06 2.719e-06 2.719e-06 2.719e-06 2.719e-06 2.719e-06 2.72e-06 2.72e-06 2.72e-06 2.719e-06 2.719e-06 2.719e-06 2.719e-06 2.719e-06 2.719e-06 
7.135e-07 7.135e-07 7.135e-07 7.135e-07 7.135e-07 7.135e-07 7.135e-07 7.135e-07 7.135e-07 7.135e-07 7.136e-07 7.136e-07 7.136e-07 7.136e-07 7.136e-07 7.136e-07 7.136e-07 7.136e-07 7.136e-07 7.136e-07 7.135e-07 
2.7e-07 2.7e-07 2.7e-07 2.7e-07 2.7e-07 2.7e-07 2.7e-07 2.7e-07 2.7e-07 2.7e-07 2.7e-07 2.7e-07 2.7e-07 2.7e-07 2.7e-07 2.7e-07 2.7e-07 2.7e-07 2.7e-07 2.7e-07 2.7e-07 
4.487e-07 4.487e-07 4.487e-07 4.487e-07 4.487e-07 4.487e-07 4.487e-07 4.487e-07 4.487e-07 4.487e-07 4.487e-07 4.487e-07 4.487e-07 4.487e-07 4.487e-07 4.487e-07 4.487e-07 4.487e-07 4.487e-07 4.487e-07 4.487e-07 
1.455e-06 1.455e-06 1.455e-06 1.455e-06 1.455e-06 1.455e-06 1.455e-06 1.455e-06 1.455e-06 1.455e-06 1.455e-06 1.455e-06 1.455e-06 1.455e-06 1.455e-06 1.455e-06 1.455e-06 1.455e-06 1.455e-06 1.455e-06 1.455e-06 
4.745e-06 4.745e-06 4.745e-06 4.745e-06 4.745e-06 4.745e-06 4.745e-06 4.745e-06 4.745e-06 4.745e-06 4.745e-06 4.745e-06 4.745e-06 4.745e-06 4.745e-06 4.745e-06 4.745e-06 4.745e-06 4.745e-06 4.745e-06 4.745e-06 
1.459e-05 1.459e-05 1.459e-05 1.459e-05 1.459e-05 1.459e-05 1.459e-05 1.459e-05 1.459e-05 1.459e-05 1.459e-05 1.459e-05 1.459e-05 1.459e-05 1.459e-05 1.459e-05 1.459e-05 1.459e-05 1.459e-05 1.459e-05 1.459e-05 
</DataArray>
<DataArray Name="E" NumberOfComponents="1" format="ascii" type="Float64">
-1.442 -1.442 -1.442 -1.442 -1.442 -1.442 -1.442 -1.442 -1.442 -1.442 -1.442 -1.442 -1.442 -1.442 -1.442 -1.442 -1.442 -1.442 -1.442 -1.442 -1.442 
-1.442 -1.442 -1.442 -1.442 -1.442 -1.442 -1.442 -1.442 -1.442 -1.442 -1.442 -1.442 -1.442 -1.442 -1.442 -1.442 -1.442 -1.442 -1.442 -1.442 -1.442 
-1.442 -1.442 -1.442 -1.442 -1.442 -1.442 -1.442 -1.442 -1.442 -1.442 -1.442 -1.442 -1.442 -1.442 -1.442 -1.442 -1.442 -1.442 -1.442 -1.442 -1.442 
-1.442 -1.442 -1.442 -1.442 -1.442 -1.442 -1.442 -1.442 -1.442 -1.442 -1.442 -1.442 -1.442 -1.442 -1.442 -1.442 -1.442 -1.442 -1.442 -1.442 -1.442 
-1.442 -1.442 -1.442 -1.442 -1.442 -1.442 -1.442 -1.442 -1.442 -1.442 -1.442 -1.442 -1.442 -1.442 -1.442 -1.442 -1.442 -1.442 -1.442 -1.442 -1.442 
-1.442 -1.442 -1.442 -1.442 -1.442 -1.442 -1.442 -1.442 -1.442 -1.442 -1.442 -1.442 -1.442 -1.442 -1.442 -1.442 -1.442 -1.442 -1.442 -1.442 -1.442 
-1.442 -1.442 -1.442 -1.442 -1.442 -1.442 -1.442 -1.442 -1.442 -1.442 -1.442 -1.442 -1.442 -1.442 -1.442 -1.442 -1.442 -1.442 -1.442 -1.442 -1.442 
-1.442 -1.442 -1.442 -1.442 -1.442 -1.442 -1.442 -1.442 -1.442 -1.442 -1.442 -1.442 -1.442 -1.442 -1.442 -1.442 -1.442 -1.442 -1.442 -1.442 -1.442 
-1.442 -1.442 -1.442 -1.442 -1.442 -1.442 -1.442 -1.442 -1.442 -1.442 -1.442 -1.442 -1.442 -1.442 -1.442 -1.442 -1.442 -1.442 -1.442 -1.442 -1.442 
-1.442 -1.442 -1.442 -1.442 -1.442 -1.442 -1.442 -1.442 -1.442 -1.442 -1.442 -1.442 -1.442 -1.442 -1.442 -1.442 -1.442 -1.442 -1.442 -1.442 -1.442 
-1.442 -1.442 -1.442 -1.442 -1.442 -1.442 -1.442 -1.442 -1.442 -1.442 -1.442 -1.442 -1.442 -1.442 -1.442 -1.442 -1.442 -1.442 -1.442 -1.442 -1.442 
-1.442 -1.442 -1.442 -1.442 -1.442 -1.442 -1.442 -1.442 -1.442 -1.442 -1.442 -1.442 -1.442 -1.442 -1.442 -1.442 -1.442 -1.442 -1.442 -1.442 -1.442 
-1.442 -1.442 -1.442 -1.442 -1.442 -1.442 -1.442 -1.442 -1.442 -1.442 -1.442 -1.442 -1.442 -1.442 -1.442 -1.442 -1.442 -1.442 -1.442 -1.442 -1.442 
-1.442 -1.442 -1.442 -1.442 -1.442 -1.442 -1.442 -1.442 -1.442 -1.442 -1.442 -1.442 -1.442 -1.442 -1.442 -1.442 -1.442 -1.442 -1.442 -1.442 -1.442 
-1.442 -1.442 -1.442 -1.442 -1.442 -1.442 -1.442 -1.442 -1.442 -1.442 -1.442 -1.442 -1.442 -1.442 -1.442 -1.442 -1.442 -1.442 -1.442 -1.442 -1.442 
-1.442 -1.442 -1.442 -1.442 -1.442 -1.442 -1.442 -1.442 -1.442 -1.442 -1.442 -1.442 -1.442 -1.442 -1.442 -1.442 -1.442 -1.442 -1.442 -1.442 -1.442 
-1.442 -1.442 -1.442 -1.442 -1.442 -1.442 -1.442 -1.442 -1.442 -1.442 -1.442 -1.442 -1.442 -1.442 -1.442 -1.442 -1.442 -1.442 -1.442 -1.442 -1.442 
-1.442 -1.442 -1.442 -1.442 -1.442 -1.442 -1.442 -1.442 -1.442 -1.442 -1.442 -1.442 -1.442 -1.442 -1.442 -1.442 -1.442 -1.442 -1.442 -1.442 -1.442 
-1.442 -1.442 -1.442 -1.442 -1.442 -1.442 -1.442 -1.442 -1.442 -1.442 -1.442 -1.442 -1.442 -1.442 -1.442 -1.442 -1.442 -1.442 -1.442 -1.442 -1.442 
-1.442 -1.442 -1.442 -1.442 -1.442 -1.442 -1.442 -1.442 -1.442 -1.442 -1.442 -1.442 -1.442 -1.442 -1.442 -1.442 -1.442 -1.442 -1.442 -1.442 -1.442 
-1.442 -1.442 -1.442 -1.442 -1.442 -1.442 -1.442 -1.442 -1.442 -1.442 -1.442 -1.442 -1.442 -1.442 -1.442 -1.442 -1.442 -1.442 -1.442 -1.442 -1.442 
-1.442 -1.442 -1.442 -1.442 -1.442 -1.442 -1.442 -1.442 -1.442 -1.442 -1.442 -1.442 -1.442 -1.442 -1.442 -1.442 -1.442 -1.442 -1.442 -1.442 -1.442 
-1.442 -1.442 -1.442 -1.442 -1.442 -1.442 -1.442 -1.442 -1.442 -1.442 -1.442 -1.442 -1.442 -1.442 -1.442 -1.442 -1.442 -1.442 -1.442 -1.442 -1.442 
-1.442 -1.442 -1.442 -1.442 -1.442 -1.442 -1.442 -1.442 -1.442 -1.442 -1.442 -1.442 -1.442 -1.442 -1.442 -1.442 -1.442 -1.442 -1.442 -1.442 -1.442 
-1.442 -1.442 -1.442 -1.442 -1.442 -1.442 -1.442 -1.442 -1.442 -1.442 -1.442 -1.442 -1.442 -1.442 -1.442 -1.442 -1.442 -1.442 -1.442 -1.442 -1.442 
-1.442 -1.442 -1.442 -1.442 -1.442 -1.442 -1.442 -1.442 -1.442 -1.442 -1.442 -1.442 -1.442 -1.442 -1.442 -1.442 -1.442 -1.442 -1.442 -1.442 -1.442 
-1.442 -1.442 -1.442 -1.442 -1.442 -1.442 -1.442 -1.442 -1.442 -1.442 -1.442 -1.442 -1.442 -1.442 -1.442 -1.442 -1.442 -1.442 -1.442 -1.442 -1.442 
-1.442 -1.442 -1.442 -1.442 -1.442 -1.442 -1.442 -1.442 -1.442 -1.442 -1.442 -1.442 -1.442 -1.442 -1.442 -1.442 -1.442 -1.442 -1.442 -1.442 -1.442 
-1.442 -1.442 -1.442 -1.442 -1.442 -1.442 -1.442 -1.442 -1.442 -1.442 -1.442 -1.442 -1.442 -1.442 -1.442 -1.442 -1.442 -1.442 -1.442 -1.442 -1.442 
-1.442 -1.442 -1.442 -1.442 -1.442 -1.442 -1.442 -1.442 -1.442 -1.442 -1.442 -1.442 -1.442 -1.442 -1.442 -1.442 -1.442 -1.442 -1.442 -1.442 -1.442 
-1.442 -1.442 -1.442 -1.442 -1.442 -1.442 -1.442 -1.442 -1.442 -1.442 -1.442 -1.442 -1.442 -1.442 -1.442 -1.442 -1.442 -1.442 -1.442 -1.442 -1.442 
-1.442 -1.442 -1.442 -1.442 -1.442 -1.442 -1.442 -1.442 -1.442 -1.442 -1.442 -1.442 -1.442 -1.442 -1.442 -1.442 -1.442 -1.442 -1.442 -1.442 -1.442 
-1.442 -1.442 -1.442 -1.442 -1.442 -1.442 -1.442 -1.442 -1.442 -1.442 -1.442 -1.442 -1.442 -1.442 -1.442 -1.442 -1.442 -1.442 -1.442 -1.442 -1.442 
-1.442 -1.442 -1.442 -1.442 -1.442 -1.442 -1.442 -1.442 -1.442 -1.442 -1.442 -1.442 -1.442 -1.442 -1.442 -1.442 -1.442 -1.442 -1.442 -1.442 -1.442 
-1.442 -1.442 -1.442 -1.442 -1.442 -1.442 -1.442 -1.442 -1.442 -1.442 -1.442 -1.442 -1.442 -1.442 -1.442 -1.442 -1.442 -1.442 -1.442 -1.442 -1.442 
-1.442 -1.442 -1.442 -1.442 -1.442 -1.442 -1.442 -1.442 -1.442 -1.442 -1.442 -1.442 -1.442 -1.442 -1.442 -1.442 -1.442 -1.442 -1.442 -1.442 -1.442 
-1.442 -1.442 -1.442 -1.442 -1.442 -1.442 -1.442 -1.442 -1.442 -1.442 -1.442 -1.442 -1.442 -1.442 -1.442 -1.442 -1.442 -1.442 -1.442 -1.442 -1.442 
-1.442 -1.442 -1.442 -1.442 -1.442 -1.442 -1.442 -1.442 -1.442 -1.442 -1.442 -1.442 -1.442 -1.442 -1.442 -1.442 -1.442 -1.442 -1.442 -1.442 -1.442 
-1.442 -1.442 -1.442 -1.442 -1.442 -1.442 -1.442 -1.442 -1.442 -1.442 -1.442 -1.442 -1.442 -1.442 -1.442 -1.442 -1.442 -1.442 -1.442 -1.442 -1.442 
-1.442 -1.442 -1.442 -1.442 -1.442 -1.442 -1.442 -1.442 -1.442 -1.442 -1.442 -1.442 -1.442 -1.442 -1.442 -1.442 -1.442 -1.442 -1.442 -1.442 -1.442 
-1.442 -1.442 -1.442 -1.442 -1.442 -1.442 -1.442 -1.442 -1.442 -1.442 -1.442 -1.442 -1.442 -1.442 -1.442 -1.442 -1.442 -1.442 -1.442 -1.442 -1.442 
</DataArray>
<DataArray Name="ne" NumberOfComponents="1" format="ascii" type="Float64">
1 1 1 1 1 1 1 1 1 1 1 1 1 1 1 1 1 1 1 1 1 
1 1 1 1 1 1 1 1 1 1 1 1 1 1 1 1 1 1 1 1 1 
1 1 1 1 1 1 1 1 1 1 1 1 1 1 1 1 1 1 1 1 1 
1 1 1 1 1 1 1 1 1 1 1 1 1 1 1 1 1 1 1 1 1 
1 1 1 1 1 1 1 1 1 1 1 1 1 1 1 1 1 1 1 1 1 
1 1 1 1 1 1 1 1 1 1 1 1 1 1 1 1 1 1 1 1 1 
1 1 1 1 1 1 1 1 1 1 1 1 1 1 1 1 1 1 1 1 1 
1 1 1 1 1 1 1 1 1 1 1 1 1 1 1 1 1 1 1 1 1 
1 1 1 1 1 1 1 1 1 1 1 1 1 1 1 1 1 1 1 1 1 
1 1 1 1 1 1 1 1 1 1 1 1 1 1 1 1 1 1 1 1 1 
1 1 1 1 1 1 1 1 1 1 1 1 1 1 1 1 1 1 1 1 1 
1 1 1 1 1 1 1 1 1 1 1 1 1 1 1 1 1 1 1 1 1 
1 1 1 1 1 1 1 1 1 1 1 1 1 1 1 1 1 1 1 1 1 
1 1 1 1 1 1 1 1 1 1 1 1 1 1 1 1 1 1 1 1 1 
1 1 1 1 1 1 1 1 1 1 1 1 1 1 1 1 1 1 1 1 1 
1 1 1 1 1 1 1 1 1 1 1 1 1 1 1 1 1 1 1 1 1 
1 1 1 1 1 1 1 1 1 1 1 1 1 1 1 1 1 1 1 1 1 
1 1 1 1 1 1 1 1 1 1 1 1 1 1 1 1 1 1 1 1 1 
1 1 1 1 1 1 1 1 1 1 1 1 1 1 1 1 1 1 1 1 1 
1 1 1 1 1 1 1 1 1 1 1 1 1 1 1 1 1 1 1 1 1 
1 1 1 1 1 1 1 1 1 1 1 1 1 1 1 1 1 1 1 1 1 
1 1 1 1 1 1 1 1 1 1 1 1 1 1 1 1 1 1 1 1 1 
1 1 1 1 1 1 1 1 1 1 1 1 1 1 1 1 1 1 1 1 1 
1 1 1 1 1 1 1 1 1 1 1 1 1 1 1 1 1 1 1 1 1 
1 1 1 1 1 1 1 1 1 1 1 1 1 1 1 1 1 1 1 1 1 
1 1 1 1 1 1 1 1 1 1 1 1 1 1 1 1 1 1 1 1 1 
1 1 1 1 1 1 1 1 1 1 1 1 1 1 1 1 1 1 1 1 1 
1 1 1 1 1 1 1 1 1 1 1 1 1 1 1 1 1 1 1 1 1 
1 1 1 1 1 1 1 1 1 1 1 1 1 1 1 1 1 1 1 1 1 
1 1 1 1 1 1 1 1 1 1 1 1 1 1 1 1 1 1 1 1 1 
1 1 1 1 1 1 1 1 1 1 1 1 1 1 1 1 1 1 1 1 1 
1 1 1 1 1 1 1 1 1 1 1 1 1 1 1 1 1 1 1 1 1 
1 1 1 1 1 1 1 1 1 1 1 1 1 1 1 1 1 1 1 1 1 
1 1 1 1 1 1 1 1 1 1 1 1 1 1 1 1 1 1 1 1 1 
1 1 1 1 1 1 1 1 1 1 1 1 1 1 1 1 1 1 1 1 1 
1 1 1 1 1 1 1 1 1 1 1 1 1 1 1 1 1 1 1 1 1 
1 1 1 1 1 1 1 1 1 1 1 1 1 1 1 1 1 1 1 1 1 
1 1 1 1 1 1 1 1 1 1 1 1 1 1 1 1 1 1 1 1 1 
1 1 1 1 1 1 1 1 1 1 1 1 1 1 1 1 1 1 1 1 1 
1 1 1 1 1 1 1 1 1 1 1 1 1 1 1 1 1 1 1 1 1 
1 1 1 1 1 1 1 1 1 1 1 1 1 1 1 1 1 1 1 1 1 
</DataArray>
</PointData>
</Piece>
</ImageData>
</VTKFile>
