<VTKFile type="ImageData">
<ImageData Origin="0 -10 0" Spacing="0.5 0.5 1" WholeExtent="0 20 0 40 0 0">
<Piece Extent="0 20 0 40 0 0">
<PointData>
<DataArray Name="f" NumberOfComponents="1" format="ascii" type="Float64">
0.0003305 0.0003305 0.0003305 0.0003305 0.0003305 0.0003305 0.0003305 0.0003305 0.0003305 0.0003305 0.0003305 0.0003305 0.0003305 0.0003305 0.0003305 0.0003305 0.0003305 0.0003305 0.0003305 0.0003305 0.0003305 
0.000145 0.000145 0.000145 0.000145 0.000145 0.000145 0.000145 0.000145 0.000145 0.000145 0.000145 0.000145 0.000145 0.000145 0.000145 0.000145 0.000145 0.000145 0.000145 0.000145 0.000145 
6.061e-05 6.061e-05 6.061e-05 6.061e-05 6.061e-05 6.061e-05 6.061e-05 6.061e-05 6.061e-05 6.061e-05 6.061e-05 6.061e-05 6.061e-05 6.061e-05 6.061e-05 6.061e-05 6.061e-05 6.061e-05 6.061e-05 6.061e-05 6.061e-05 
2.498e-05 2.498e-05 2.498e-05 2.498e-05 2.498e-05 2.498e-05 2.498e-05 2.498e-05 2.498e-05 2.498e-05 2.498e-05 2.498e-05 2.498e-05 2.498e-05 2.498e-05 2.498e-05 2.498e-05 2.498e-05 2.498e-05 2.498e-05 2.498e-05 
1.253e-05 1.253e-05 1.253e-05 1.253e-05 1.253e-05 1.253e-05 1.253e-05 1.253e-05 1.253e-05 1.253e-05 1.253e-05 1.253e-05 1.253e-05 1.253e-05 1.253e-05 1.253e-05 1.253e-05 1.253e-05 1.253e-05 1.253e-05 1.253e-05 
1.325e-05 1.325e-05 1.325e-05 1.325e-05 1.325e-05 1.325e-05 1.325e-05 1.325e-05 1.325e-05 1.325e-05 1.325e-05 1.325e-05 1.325e-05 1.325e-05 1.325e-05 1.325e-05 1.325e-05 1.325e-05 1.325e-05 1.325e-05 1.325e-05 
2.743e-05 2.743e-05 2.743e-05 2.743e-05 2.743e-05 2.743e-05 2.743e-05 2.743e-05 2.743e-05 2.743e-05 2.743e-05 2.743e-05 2.743e-05 2.743e-05 2.743e-05 2.743e-05 2.743e-05 2.743e-05 2.743e-05 2.743e-05 2.743e-05 
6.562e-05 6.562e-05 6.562e-05 6.562e-05 6.562e-05 6.562e-05 6.562e-05 6.562e-05 6.562e-05 6.562e-05 6.562e-05 6.562e-05 6.562e-05 6.562e-05 6.562e-05 6.562e-05 6.562e-05 6.562e-05 6.562e-05 6.562e-05 6.562e-05 
0.0001537 0.0001537 0.0001537 0.0001537 0.0001537 0.0001537 0.0001537 0.0001537 0.0001537 0.0001537 0.0001537 0.0001537 0.0001537 0.0001537 0.0001537 0.0001537 0.0001537 0.0001537 0.0001537 0.0001537 0.0001537 
0.0003439 0.0003439 0.0003439 0.0003439 0.0003439 0.0003439 0.0003439 0.0003439 0.0003439 0.0003439 0.0003439 0.0003439 0.0003439 0.0003439 0.0003439 0.0003439 0.0003439 0.0003439 0.0003439 0.0003439 0.0003439 
0.0007323 0.0007323 0.0007323 0.0007323 0.0007323 0.0007323 0.0007323 0.0007323 0.0007323 0.0007323 0.0007323 0.0007323 0.0007323 0.0007323 0.0007323 0.0007323 0.0007323 0.0007323 0.0007323 0.0007323 0.0007323 
0.001484 0.001484 0.001484 0.001484 0.001484 0.001484 0.001484 0.001484 0.001484 0.001484 0.001484 0.001484 0.001484 0.001484 0.001484 0.001484 0.001484 0.001484 0.001484 0.001484 0.001484 
0.002863 0.002863 0.002863 0.002863 0.002863 0.002863 0.002863 0.002863 0.002863 0.002863 0.002863 0.002863 0.002863 0.002863 0.002863 0.002863 0.002863 0.002863 0.002863 0.002863 0.002863 
0.00526 0.00526 0.00526 0.00526 0.00526 0.00526 0.00526 0.00526 0.00526 0.00526 0.00526 0.00526 0.00526 0.00526 0.00526 0.00526 0.00526 0.00526 0.00526 0.00526 0.00526 
0.0092 0.0092 0.0092 0.0092 0.0092 0.0092 0.0092 0.0092 0.0092 0.0092 0.0092 0.0092 0.0092 0.0092 0.0092 0.0092 0.0092 0.0092 0.0092 0.0092 0.0092 
0.01533 0.01533 0.01533 0.01533 0.01533 0.01533 0.01533 0.01533 0.01533 0.01533 0.01533 0.01533 0.01533 0.01533 0.01533 0.01533 0.01533 0.01533 0.01533 0.01533 0.01533 
0.02432 0.02432 0.02432 0.02432 0.02432 0.02432 0.02432 0.02432 0.02432 0.02432 0.02432 0.02432 0.02432 0.02432 0.02432 0.02432 0.02432 0.02432 0.02432 0.02432 0.02432 
0.03676 0.03676 0.03676 0.03676 0.03676 0.03676 0.03676 0.03676 0.03676 0.03676 0.03676 0.03676 0.03676 0.03676 0.03676 0.03676 0.03676 0.03676 0.03676 0.03676 0.03676 
0.05294 0.05294 0.05294 0.05294 0.05294 0.05294 0.05294 0.05294 0.05294 0.05294 0.05294 0.05294 0.05294 0.05294 0.05294 0.05294 0.05294 0.05294 0.05294 0.05294 0.05294 
0.07264 0.07264 0.07264 0.07264 0.07264 0.07264 0.07264 0.07264 0.07264 0.07264 0.07264 0.07264 0.07264 0.07264 0.07264 0.07264 0.07264 0.07264 0.07264 0.07264 0.07264 
0.09497 0.09497 0.09497 0.09497 0.09497 0.09497 0.09497 0.09497 0.09497 0.09497 0.09497 0.09497 0.09497 0.09497 0.09497 0.09497 0.09497 0.09497 0.09497 0.09497 0.09497 
0.1183 0.1183 0.1183 0.1183 0.1183 0.1183 0.1183 0.1183 0.1183 0.1183 0.1183 0.1183 0.1183 0.1183 0.1183 0.1183 0.1183 0.1183 0.1183 0.1183 0.1183 
0.1404 0.1404 0.1404 0.1404 0.1404 0.1404 0.1404 0.1404 0.1404 0.1404 0.1404 0.1404 0.1404 0.1404 0.1404 0.1404 0.1404 0.1404 0.1404 0.1404 0.1404 
0.1588 0.1588 0.1588 0.1588 0.1588 0.1588 0.1588 0.1588 0.1588 0.1588 0.1588 0.1588 0.1588 0.1588 0.1588 0.1588 0.1588 0.1588 0.1588 0.1588 0.1588 
0.1712 0.1712 0.1712 0.1712 0.1712 0.1712 0.1712 0.1712 0.1712 0.1712 0.1712 0.1712 0.1712 0.1712 0.1712 0.1712 0.1712 0.1712 0.1712 0.1712 0.1712 
0.1758 0.1758 0.1758 0.1758 0.1758 0.1758 0.1758 0.1758 0.1758 0.1758 0.1758 0.1758 0.1758 0.1758 0.1758 0.1758 0.1758 0.1758 0.1758 0.1758 0.1758 
0.172 0.172 0.172 0.172 0.172 0.172 0.172 0.172 0.172 0.172 0.172 0.172 0.172 0.172 0.172 0.172 0.172 0.172 0.172 0.172 0.172 
0.1603 0.1603 0.1603 0.1603 0.1603 0.1603 0.1603 0.1603 0.1603 0.1603 0.1603 0.1603 0.1603 0.1603 0.1603 0.1603 0.1603 0.1603 0.1603 0.1603 0.1603 
0.1423 0.1423 0.1423 0.1423 0.1423 0.1423 0.1423 0.1423 0.1423 0.1423 0.1423 0.1423 0.1423 0.1423 0.1423 0.1423 0.1423 0.1423 0.1423 0.1423 0.1423 
0.1203 0.1203 0.1203 0.1203 0.1203 0.1203 0.1203 0.1203 0.1203 0.1203 0.1203 0.1203 0.1203 0.1203 0.1203 0.1203 0.1203 0.1203 0.1203 0.1203 0.1203 
0.09684 0.09684 0.09684 0.09684 0.09684 0.09684 0.09684 0.09684 0.09684 0.09684 0.09684 0.09684 0.09684 0.09684 0.09684 0.09684 0.09684 0.09684 0.09684 0.09684 0.09684 
0.07423 0.07423 0.07423 0.07423 0.07423 0.07423 0.07423 0.07423 0.07423 0.07423 0.07423 0.07423 0.07423 0.07423 0.07423 0.07423 0.07423 0.07423 0.07423 0.07423 0.07423 
0.05417 0.05417 0.05417 0.05417 0.05417 0.05417 0.05417 0.05417 0.05417 0.05417 0.05417 0.05417 0.05417 0.05417 0.05417 0.05417 0.05417 0.05417 0.05417 0.05417 0.05417 
0.03762 0.03762 0.03762 0.03762 0.03762 0.03762 0.03762 0.03762 0.03762 0.03762 0.03762 0.03762 0.03762 0.03762 0.03762 0.03762 0.03762 0.03762 0.03762 0.03762 0.03762 
0.02486 0.02486 0.02486 0.02486 0.02486 0.02486 0.02486 0.02486 0.02486 0.02486 0.02486 0.02486 0.02486 0.02486 0.02486 0.02486 0.02486 0.02486 0.02486 0.02486 0.02486 
0.01562 0.01562 0.01562 0.01562 0.01562 0.01562 0.01562 0.01562 0.01562 0.01562 0.01562 0.01562 0.01562 0.01562 0.01562 0.01562 0.01562 0.01562 0.01562 0.01562 0.01562 
0.009337 0.009337 0.009337 0.009337 0.009337 0.009337 0.009337 0.009337 0.009337 0.009337 0.009337 0.009337 0.009337 0.009337 0.009337 0.009337 0.009337 0.009337 0.009337 0.009337 0.009337 
0.005305 0.005305 0.005305 0.005305 0.005305 0.005305 0.005305 0.005305 0.005305 0.005305 0.005305 0.005305 0.005305 0.005305 0.005305 0.005305 0.005305 0.005305 0.005305 0.005305 0.005305 
0.002864 0.002864 0.002864 0.002864 0.002864 0.002864 0.002864 0.002864 0.002864 0.002864 0.002864 0.002864 0.002864 0.002864 0.002864 0.002864 0.002864 0.002864 0.002864 0.002864 0.002864 
0.001469 0.001469 0.001469 0.001469 0.001469 0.001469 0.001469 0.001469 0.001469 0.001469 0.001469 0.001469 0.001469 0.001469 0.001469 0.001469 0.001469 0.001469 0.001469 0.001469 0.001469 
0.0007152 0.0007152 0.0007152 0.0007152 0.0007152 0.0007152 0.0007152 0.0007152 0.0007152 0.0007152 0.0007152 0.0007152 0.0007152 0.0007152 0.0007152 0.0007152 0.0007152 0.0007152 0.0007152 0.0007152 0.0007152 
</DataArray>
<DataArray Name="E" NumberOfComponents="1" format="ascii" type="Float64">
-1.585 -1.585 -1.585 -1.585 -1.585 -1.585 -1.585 -1.585 -1.585 -1.585 -1.585 -1.585 -1.585 -1.585 -1.585 -1.585 -1.585 -1.585 -1.585 -1.585 -1.585 
-1.585 -1.585 -1.585 -1.585 -1.585 -1.585 -1.585 -1.585 -1.585 -1.585 -1.585 -1.585 -1.585 -1.585 -1.585 -1.585 -1.585 -1.585 -1.585 -1.585 -1.585 
-1.585 -1.585 -1.585 -1.585 -1.585 -1.585 -1.585 -1.585 -1.585 -1.585 -1.585 -1.585 -1.585 -1.585 -1.585 -1.585 -1.585 -1.585 -1.585 -1.585 -1.585 
-1.585 -1.585 -1.585 -1.585 -1.585 -1.585 -1.585 -1.585 -1.585 -1.585 -1.585 -1.585 -1.585 -1.585 -1.585 -1.585 -1.585 -1.585 -1.585 -1.585 -1.585 
-1.585 -1.585 -1.585 -1.585 -1.585 -1.585 -1.585 -1.585 -1.585 -1.585 -1.585 -1.585 -1.585 -1.585 -1.585 -1.585 -1.585 -1.585 -1.585 -1.585 -1.585 
-1.585 -1.585 -1.585 -1.585 -1.585 -1.585 -1.585 -1.585 -1.585 -1.585 -1.585 -1.585 -1.585 -1.585 -1.585 -1.585 -1.585 -1.585 -1.585 -1.585 -1.585 
-1.585 -1.585 -1.585 -1.585 -1.585 -1.585 -1.585 -1.585 -1.585 -1.585 -1.585 -1.585 -1.585 -1.585 -1.585 -1.585 -1.585 -1.585 -1.585 -1.585 -1.585 
-1.585 -1.585 -1.585 -1.585 -1.585 -1.585 -1.585 -1.585 -1.585 -1.585 -1.585 -1.585 -1.585 -1.585 -1.585 -1.585 -1.585 -1.585 -1.585 -1.585 -1.585 
-1.585 -1.585 -1.585 -1.585 -1.585 -1.585 -1.585 -1.585 -1.585 -1.585 -1.585 -1.585 -1.585 -1.585 -1.585 -1.585 -1.585 -1.585 -1.585 -1.585 -1.585 
-1.585 -1.585 -1.585 -1.585 -1.585 -1.585 -1.585 -1.585 -1.585 -1.585 -1.585 -1.585 -1.585 -1.585 -1.585 -1.585 -1.585 -1.585 -1.585 -1.585 -1.585 
-1.585 -1.585 -1.585 -1.585 -1.585 -1.585 -1.585 -1.585 -1.585 -1.585 -1.585 -1.585 -1.585 -1.585 -1.585 -1.585 -1.585 -1.585 -1.585 -1.585 -1.585 
-1.585 -1.585 -1.585 -1.585 -1.585 -1.585 -1.585 -1.585 -1.585 -1.585 -1.585 -1.585 -1.585 -1.585 -1.585 -1.585 -1.585 -1.585 -1.585 -1.585 -1.585 
-1.585 -1.585 -1.585 -1.585 -1.585 -1.585 -1.585 -1.585 -1.585 -1.585 -1.585 -1.585 -1.585 -1.585 -1.585 -1.585 -1.585 -1.585 -1.585 -1.585 -1.585 
-1.585 -1.585 -1.585 -1.585 -1.585 -1.585 -1.585 -1.585 -1.585 -1.585 -1.585 -1.585 -1.585 -1.585 -1.585 -1.585 -1.585 -1.585 -1.585 -1.585 -1.585 
-1.585 -1.585 -1.585 -1.585 -1.585 -1.585 -1.585 -1.585 -1.585 -1.585 -1.585 -1.585 -1.585 -1.585 -1.585 -1.585 -1.585 -1.585 -1.585 -1.585 -1.585 
-1.585 -1.585 -1.585 -1.585 -1.585 -1.585 -1.585 -1.585 -1.585 -1.585 -1.585 -1.585 -1.585 -1.585 -1.585 -1.585 -1.585 -1.585 -1.585 -1.585 -1.585 
-1.585 -1.585 -1.585 -1.585 -1.585 -1.585 -1.585 -1.585 -1.585 -1.585 -1.585 -1.585 -1.585 -1.585 -1.585 -1.585 -1.585 -1.585 -1.585 -1.585 -1.585 
-1.585 -1.585 -1.585 -1.585 -1.585 -1.585 -1.585 -1.585 -1.585 -1.585 -1.585 -1.585 -1.585 -1.585 -1.585 -1.585 -1.585 -1.585 -1.585 -1.585 -1.585 
-1.585 -1.585 -1.585 -1.585 -1.585 -1.585 -1.585 -1.585 -1.585 -1.585 -1.585 -1.585 -1.585 -1.585 -1.585 -1.585 -1.585 -1.585 -1.585 -1.585 -1.585 
-1.585 -1.585 -1.585 -1.585 -1.585 -1.585 -1.585 -1.585 -1.585 -1.585 -1.585 -1.585 -1.585 -1.585 -1.585 -1.585 -1.585 -1.585 -1.585 -1.585 -1.585 
-1.585 -1.585 -1.585 -1.585 -1.585 -1.585 -1.585 -1.585 -1.585 -1.585 -1.585 -1.585 -1.585 -1.585 -1.585 -1.585 -1.585 -1.585 -1.585 -1.585 -1.585 
-1.585 -1.585 -1.585 -1.585 -1.585 -1.585 -1.585 -1.585 -1.585 -1.585 -1.585 -1.585 -1.585 -1.585 -1.585 -1.585 -1.585 -1.585 -1.585 -1.585 -1.585 
-1.585 -1.585 -1.585 -1.585 -1.585 -1.585 -1.585 -1.585 -1.585 -1.585 -1.585 -1.585 -1.585 -1.585 -1.585 -1.585 -1.585 -1.585 -1.585 -1.585 -1.585 
-1.585 -1.585 -1.585 -1.585 -1.585 -1.585 -1.585 -1.585 -1.585 -1.585 -1.585 -1.585 -1.585 -1.585 -1.585 -1.585 -1.585 -1.585 -1.585 -1.585 -1.585 
-1.585 -1.585 -1.585 -1.585 -1.585 -1.585 -1.585 -1.585 -1.585 -1.585 -1.585 -1.585 -1.585 -1.585 -1.585 -1.585 -1.585 -1.585 -1.585 -1.585 -1.585 
-1.585 -1.585 -1.585 -1.585 -1.585 -1.585 -1.585 -1.585 -1.585 -1.585 -1.585 -1.585 -1.585 -1.585 -1.585 -1.585 -1.585 -1.585 -1.585 -1.585 -1.585 
-1.585 -1.585 -1.585 -1.585 -1.585 -1.585 -1.585 -1.585 -1.585 -1.585 -1.585 -1.585 -1.585 -1.585 -1.585 -1.585 -1.585 -1.585 -1.585 -1.585 -1.585 
-1.585 -1.585 -1.585 -1.585 -1.585 -1.585 -1.585 -1.585 -1.585 -1.585 -1.585 -1.585 -1.585 -1.585 -1.585 -1.585 -1.585 -1.585 -1.585 -1.585 -1.585 
-1.585 -1.585 -1.585 -1.585 -1.585 -1.585 -1.585 -1.585 -1.585 -1.585 -1.585 -1.585 -1.585 -1.585 -1.585 -1.585 -1.585 -1.585 -1.585 -1.585 -1.585 
-1.585 -1.585 -1.585 -1.585 -1.585 -1.585 -1.585 -1.585 -1.585 -1.585 -1.585 -1.585 -1.585 -1.585 -1.585 -1.585 -1.585 -1.585 -1.585 -1.585 -1.585 
-1.585 -1.585 -1.585 -1.585 -1.585 -1.585 -1.585 -1.585 -1.585 -1.585 -1.585 -1.585 -1.585 -1.585 -1.585 -1.585 -1.585 -1.585 -1.585 -1.585 -1.585 
-1.585 -1.585 -1.585 -1.585 -1.585 -1.585 -1.585 -1.585 -1.585 -1.585 -1.585 -1.585 -1.585 -1.585 -1.585 -1.585 -1.585 -1.585 -1.585 -1.585 -1.585 
-1.585 -1.585 -1.585 -1.585 -1.585 -1.585 -1.585 -1.585 -1.585 -1.585 -1.585 -1.585 -1.585 -1.585 -1.585 -1.585 -1.585 -1.585 -1.585 -1.585 -1.585 
-1.585 -1.585 -1.585 -1.585 -1.585 -1.585 -1.585 -1.585 -1.585 -1.585 -1.585 -1.585 -1.585 -1.585 -1.585 -1.585 -1.585 -1.585 -1.585 -1.585 -1.585 
-1.585 -1.585 -1.585 -1.585 -1.585 -1.585 -1.585 -1.585 -1.585 -1.585 -1.585 -1.585 -1.585 -1.585 -1.585 -1.585 -1.585 -1.585 -1.585 -1.585 -1.585 
-1.585 -1.585 -1.585 -1.585 -1.585 -1.585 -1.585 -1.585 -1.585 -1.585 -1.585 -1.585 -1.585 -1.585 -1.585 -1.585 -1.585 -1.585 -1.585 -1.585 -1.585 
-1.585 -1.585 -1.585 -1.585 -1.585 -1.585 -1.585 -1.585 -1.585 -1.585 -1.585 -1.585 -1.585 -1.585 -1.585 -1.585 -1.585 -1.585 -1.585 -1.585 -1.585 
-1.585 -1.585 -1.585 -1.585 -1.585 -1.585 -1.585 -1.585 -1.585 -1.585 -1.585 -1.585 -1.585 -1.585 -1.585 -1.585 -1.585 -1.585 -1.585 -1.585 -1.585 
-1.585 -1.585 -1.585 -1.585 -1.585 -1.585 -1.585 -1.585 -1.585 -1.585 -1.585 -1.585 -1.585 -1.585 -1.585 -1.585 -1.585 -1.585 -1.585 -1.585 -1.585 
-1.585 -1.585 -1.585 -1.585 -1.585 -1.585 -1.585 -1.585 -1.585 -1.585 -1.585 -1.585 -1.585 -1.585 -1.585 -1.585 -1.585 -1.585 -1.585 -1.585 -1.585 
-1.585 -1.585 -1.585 -1.585 -1.585 -1.585 -1.585 -1.585 -1.585 -1.585 -1.585 -1.585 -1.585 -1.585 -1.585 -1.585 -1.585 -1.585 -1.585 -1.585 -1.585 
</DataArray>
<DataArray Name="ne" NumberOfComponents="1" format="ascii" type="Float64">
0.9998 0.9998 0.9998 0.9998 0.9998 0.9998 0.9998 0.9998 0.9998 0.9998 0.9998 0.9998 0.9998 0.9998 0.9998 0.9998 0.9998 0.9998 0.9998 0.9998 0.9998 
0.9998 0.9998 0.9998 0.9998 0.9998 0.9998 0.9998 0.9998 0.9998 0.9998 0.9998 0.9998 0.9998 0.9998 0.9998 0.9998 0.9998 0.9998 0.9998 0.9998 0.9998 
0.9998 0.9998 0.9998 0.9998 0.9998 0.9998 0.9998 0.9998 0.9998 0.9998 0.9998 0.9998 0.9998 0.9998 0.9998 0.9998 0.9998 0.9998 0.9998 0.9998 0.9998 
0.9998 0.9998 0.9998 0.9998 0.9998 0.9998 0.9998 0.9998 0.9998 0.9998 0.9998 0.9998 0.9998 0.9998 0.9998 0.9998 0.9998 0.9998 0.9998 0.9998 0.9998 
0.9998 0.9998 0.9998 0.9998 0.9998 0.9998 0.9998 0.9998 0.9998 0.9998 0.9998 0.9998 0.9998 0.9998 0.9998 0.9998 0.9998 0.9998 0.9998 0.9998 0.9998 
0.9998 0.9998 0.9998 0.9998 0.9998 0.9998 0.9998 0.9998 0.9998 0.9998 0.9998 0.9998 0.9998 0.9998 0.9998 0.9998 0.9998 0.9998 0.9998 0.9998 0.9998 
0.9998 0.9998 0.9998 0.9998 0.9998 0.9998 0.9998 0.9998 0.9998 0.9998 0.9998 0.9998 0.9998 0.9998 0.9998 0.9998 0.9998 0.9998 0.9998 0.9998 0.9998 
0.9998 0.9998 0.9998 0.9998 0.9998 0.9998 0.9998 0.9998 0.9998 0.9998 0.9998 0.9998 0.9998 0.9998 0.9998 0.9998 0.9998 0.9998 0.9998 0.9998 0.9998 
0.9998 0.9998 0.9998 0.9998 0.9998 0.9998 0.9998 0.9998 0.9998 0.9998 0.9998 0.9998 0.9998 0.9998 0.9998 0.9998 0.9998 0.9998 0.9998 0.9998 0.9998 
0.9998 0.9998 0.9998 0.9998 0.9998 0.9998 0.9998 0.9998 0.9998 0.9998 0.9998 0.9998 0.9998 0.9998 0.9998 0.9998 0.9998 0.9998 0.9998 0.9998 0.9998 
0.9998 0.9998 0.9998 0.9998 0.9998 0.9998 0.9998 0.9998 0.9998 0.9998 0.9998 0.9998 0.9998 0.9998 0.9998 0.9998 0.9998 0.9998 0.9998 0.9998 0.9998 
0.9998 0.9998 0.9998 0.9998 0.9998 0.9998 0.9998 0.9998 0.9998 0.9998 0.9998 0.9998 0.9998 0.9998 0.9998 0.9998 0.9998 0.9998 0.9998 0.9998 0.9998 
0.9998 0.9998 0.9998 0.9998 0.9998 0.9998 0.9998 0.9998 0.9998 0.9998 0.9998 0.9998 0.9998 0.9998 0.9998 0.9998 0.9998 0.9998 0.9998 0.9998 0.9998 
0.9998 0.9998 0.9998 0.9998 0.9998 0.9998 0.9998 0.9998 0.9998 0.9998 0.9998 0.9998 0.9998 0.9998 0.9998 0.9998 0.9998 0.9998 0.9998 0.9998 0.9998 
0.9998 0.9998 0.9998 0.9998 0.9998 0.9998 0.9998 0.9998 0.9998 0.9998 0.9998 0.9998 0.9998 0.9998 0.9998 0.9998 0.9998 0.9998 0.9998 0.9998 0.9998 
0.9998 0.9998 0.9998 0.9998 0.9998 0.9998 0.9998 0.9998 0.9998 0.9998 0.9998 0.9998 0.9998 0.9998 0.9998 0.9998 0.9998 0.9998 0.9998 0.9998 0.9998 
0.9998 0.9998 0.9998 0.9998 0.9998 0.9998 0.9998 0.9998 0.9998 0.9998 0.9998 0.9998 0.9998 0.9998 0.9998 0.9998 0.9998 0.9998 0.9998 0.9998 0.9998 
0.9998 0.9998 0.9998 0.9998 0.9998 0.9998 0.9998 0.9998 0.9998 0.9998 0.9998 0.9998 0.9998 0.9998 0.9998 0.9998 0.9998 0.9998 0.9998 0.9998 0.9998 
0.9998 0.9998 0.9998 0.9998 0.9998 0.9998 0.9998 0.9998 0.9998 0.9998 0.9998 0.9998 0.9998 0.9998 0.9998 0.9998 0.9998 0.9998 0.9998 0.9998 0.9998 
0.9998 0.9998 0.9998 0.9998 0.9998 0.9998 0.9998 0.9998 0.9998 0.9998 0.9998 0.9998 0.9998 0.9998 0.9998 0.9998 0.9998 0.9998 0.9998 0.9998 0.9998 
0.9998 0.9998 0.9998 0.9998 0.9998 0.9998 0.9998 0.9998 0.9998 0.9998 0.9998 0.9998 0.9998 0.9998 0.9998 0.9998 0.9998 0.9998 0.9998 0.9998 0.9998 
0.9998 0.9998 0.9998 0.9998 0.9998 0.9998 0.9998 0.9998 0.9998 0.9998 0.9998 0.9998 0.9998 0.9998 0.9998 0.9998 0.9998 0.9998 0.9998 0.9998 0.9998 
0.9998 0.9998 0.9998 0.9998 0.9998 0.9998 0.9998 0.9998 0.9998 0.9998 0.9998 0.9998 0.9998 0.9998 0.9998 0.9998 0.9998 0.9998 0.9998 0.9998 0.9998 
0.9998 0.9998 0.9998 0.9998 0.9998 0.9998 0.9998 0.9998 0.9998 0.9998 0.9998 0.9998 0.9998 0.9998 0.9998 0.9998 0.9998 0.9998 0.9998 0.9998 0.9998 
0.9998 0.9998 0.9998 0.9998 0.9998 0.9998 0.9998 0.9998 0.9998 0.9998 0.9998 0.9998 0.9998 0.9998 0.9998 0.9998 0.9998 0.9998 0.9998 0.9998 0.9998 
0.9998 0.9998 0.9998 0.9998 0.9998 0.9998 0.9998 0.9998 0.9998 0.9998 0.9998 0.9998 0.9998 0.9998 0.9998 0.9998 0.9998 0.9998 0.9998 0.9998 0.9998 
0.9998 0.9998 0.9998 0.9998 0.9998 0.9998 0.9998 0.9998 0.9998 0.9998 0.9998 0.9998 0.9998 0.9998 0.9998 0.9998 0.9998 0.9998 0.9998 0.9998 0.9998 
0.9998 0.9998 0.9998 0.9998 0.9998 0.9998 0.9998 0.9998 0.9998 0.9998 0.9998 0.9998 0.9998 0.9998 0.9998 0.9998 0.9998 0.9998 0.9998 0.9998 0.9998 
0.9998 0.9998 0.9998 0.9998 0.9998 0.9998 0.9998 0.9998 0.9998 0.9998 0.9998 0.9998 0.9998 0.9998 0.9998 0.9998 0.9998 0.9998 0.9998 0.9998 0.9998 
0.9998 0.9998 0.9998 0.9998 0.9998 0.9998 0.9998 0.9998 0.9998 0.9998 0.9998 0.9998 0.9998 0.9998 0.9998 0.9998 0.9998 0.9998 0.9998 0.9998 0.9998 
0.9998 0.9998 0.9998 0.9998 0.9998 0.9998 0.9998 0.9998 0.9998 0.9998 0.9998 0.9998 0.9998 0.9998 0.9998 0.9998 0.9998 0.9998 0.9998 0.9998 0.9998 
0.9998 0.9998 0.9998 0.9998 0.9998 0.9998 0.9998 0.9998 0.9998 0.9998 0.9998 0.9998 0.9998 0.9998 0.9998 0.9998 0.9998 0.9998 0.9998 0.9998 0.9998 
0.9998 0.9998 0.9998 0.9998 0.9998 0.9998 0.9998 0.9998 0.9998 0.9998 0.9998 0.9998 0.9998 0.9998 0.9998 0.9998 0.9998 0.9998 0.9998 0.9998 0.9998 
0.9998 0.9998 0.9998 0.9998 0.9998 0.9998 0.9998 0.9998 0.9998 0.9998 0.9998 0.9998 0.9998 0.9998 0.9998 0.9998 0.9998 0.9998 0.9998 0.9998 0.9998 
0.9998 0.9998 0.9998 0.9998 0.9998 0.9998 0.9998 0.9998 0.9998 0.9998 0.9998 0.9998 0.9998 0.9998 0.9998 0.9998 0.9998 0.9998 0.9998 0.9998 0.9998 
0.9998 0.9998 0.9998 0.9998 0.9998 0.9998 0.9998 0.9998 0.9998 0.9998 0.9998 0.9998 0.9998 0.9998 0.9998 0.9998 0.9998 0.9998 0.9998 0.9998 0.9998 
0.9998 0.9998 0.9998 0.9998 0.9998 0.9998 0.9998 0.9998 0.9998 0.9998 0.9998 0.9998 0.9998 0.9998 0.9998 0.9998 0.9998 0.9998 0.9998 0.9998 0.9998 
0.9998 0.9998 0.9998 0.9998 0.9998 0.9998 0.9998 0.9998 0.9998 0.9998 0.9998 0.9998 0.9998 0.9998 0.9998 0.9998 0.9998 0.9998 0.9998 0.9998 0.9998 
0.9998 0.9998 0.9998 0.9998 0.9998 0.9998 0.9998 0.9998 0.9998 0.9998 0.9998 0.9998 0.9998 0.9998 0.9998 0.9998 0.9998 0.9998 0.9998 0.9998 0.9998 
0.9998 0.9998 0.9998 0.9998 0.9998 0.9998 0.9998 0.9998 0.9998 0.9998 0.9998 0.9998 0.9998 0.9998 0.9998 0.9998 0.9998 0.9998 0.9998 0.9998 0.9998 
0.9998 0.9998 0.9998 0.9998 0.9998 0.9998 0.9998 0.9998 0.9998 0.9998 0.9998 0.9998 0.9998 0.9998 0.9998 0.9998 0.9998 0.9998 0.9998 0.9998 0.9998 
</DataArray>
</PointData>
</Piece>
</ImageData>
</VTKFile>
