<VTKFile type="ImageData">
<ImageData Origin="0 -10 0" Spacing="0.5 0.5 1" WholeExtent="0 20 0 40 0 0">
<Piece Extent="0 20 0 40 0 0">
<PointData>
<DataArray Name="f" NumberOfComponents="1" format="ascii" type="Float64">
0.001987 0.001987 0.001987 0.001987 0.001987 0.001987 0.001987 0.001987 0.001987 0.001987 0.001987 0.001987 0.001987 0.001987 0.001987 0.001987 0.001987 0.001987 0.001987 0.001987 0.001987 
0.004505 0.004505 0.004505 0.004505 0.004505 0.004505 0.004505 0.004505 0.004505 0.004505 0.004505 0.004505 0.004505 0.004505 0.004505 0.004505 0.004505 0.004505 0.004505 0.004505 0.004505 
0.009496 0.009495 0.009495 0.009495 0.009495 0.009495 0.009495 0.009495 0.009495 0.009495 0.009495 0.009495 0.009495 0.009495 0.009495 0.009495 0.009495 0.009495 0.009496 0.009496 0.009496 
0.01858 0.01858 0.01858 0.01858 0.01858 0.01858 0.01858 0.01858 0.01858 0.01858 0.01858 0.01858 0.01858 0.01858 0.01858 0.01858 0.01858 0.01858 0.01858 0.01858 0.01858 
0.03374 0.03374 0.03374 0.03374 0.03374 0.03374 0.03374 0.03374 0.03374 0.03374 0.03374 0.03374 0.03374 0.03374 0.03374 0.03374 0.03374 0.03374 0.03374 0.03374 0.03374 
0.05677 0.05677 0.05677 0.05677 0.05677 0.05677 0.05677 0.05677 0.05677 0.05677 0.05677 0.05677 0.05677 0.05677 0.05677 0.05677 0.05677 0.05677 0.05677 0.05677 0.05677 
0.08839 0.08839 0.08839 0.08839 0.08839 0.08839 0.08839 0.08839 0.08839 0.08839 0.08839 0.08839 0.08839 0.08839 0.08839 0.08839 0.08839 0.08839 0.08839 0.08839 0.08839 
0.1272 0.1272 0.1272 0.1272 0.1272 0.1272 0.1272 0.1272 0.1272 0.1272 0.1272 0.1272 0.1272 0.1272 0.1272 0.1272 0.1272 0.1272 0.1272 0.1272 0.1272 
0.1688 0.1688 0.1688 0.1688 0.1688 0.1688 0.1688 0.1688 0.1688 0.1688 0.1688 0.1688 0.1688 0.1688 0.1688 0.1688 0.1688 0.1688 0.1688 0.1688 0.1688 
0.2063 0.2063 0.2063 0.2063 0.2063 0.2063 0.2063 0.2063 0.2063 0.2063 0.2063 0.2063 0.2063 0.2063 0.2063 0.2063 0.2063 0.2063 0.2063 0.2063 0.2063 
0.2317 0.2317 0.2317 0.2317 0.2317 0.2317 0.2317 0.2317 0.2317 0.2317 0.2317 0.2317 0.2317 0.2317 0.2317 0.2317 0.2317 0.2317 0.2317 0.2317 0.2317 
0.2385 0.2385 0.2385 0.2385 0.2385 0.2385 0.2385 0.2385 0.2385 0.2385 0.2385 0.2385 0.2385 0.2385 0.2385 0.2385 0.2385 0.2385 0.2385 0.2385 0.2385 
0.2244 0.2244 0.2244 0.2244 0.2244 0.2244 0.2244 0.2244 0.2244 0.2244 0.2244 0.2244 0.2244 0.2244 0.2244 0.2244 0.2244 0.2244 0.2244 0.2244 0.2244 
0.1925 0.1925 0.1925 0.1925 0.1925 0.1925 0.1925 0.1925 0.1925 0.1925 0.1925 0.1925 0.1925 0.1925 0.1925 0.1925 0.1925 0.1925 0.1925 0.1925 0.1925 
0.1501 0.1501 0.1501 0.1501 0.1501 0.1501 0.1501 0.1501 0.1501 0.1501 0.1501 0.1501 0.1501 0.1501 0.1501 0.1501 0.1501 0.1501 0.1501 0.1501 0.1501 
0.1059 0.1059 0.1059 0.1059 0.1059 0.1059 0.1059 0.1059 0.1059 0.1059 0.1059 0.1059 0.1059 0.1059 0.1059 0.1059 0.1059 0.1059 0.1059 0.1059 0.1059 
0.0674 0.0674 0.0674 0.0674 0.0674 0.0674 0.0674 0.0674 0.0674 0.0674 0.0674 0.0674 0.0674 0.0674 0.0674 0.0674 0.0674 0.0674 0.0674 0.0674 0.0674 
0.03851 0.03851 0.03851 0.03851 0.03851 0.03851 0.03851 0.03851 0.03851 0.03851 0.03851 0.03851 0.03851 0.03851 0.03851 0.03851 0.03851 0.03851 0.03851 0.03851 0.03851 
0.01966 0.01966 0.01966 0.01966 0.01966 0.01966 0.01966 0.01966 0.01966 0.01966 0.01966 0.01966 0.01966 0.01966 0.01966 0.01966 0.01966 0.01966 0.01966 0.01966 0.01966 
0.008923 0.008922 0.008922 0.008922 0.008923 0.008923 0.008923 0.008923 0.008923 0.008923 0.008923 0.008923 0.008923 0.008923 0.008923 0.008923 0.008923 0.008923 0.008924 0.008923 0.008923 
0.003578 0.003578 0.003578 0.003578 0.003578 0.003578 0.003578 0.003578 0.003578 0.003578 0.003578 0.003578 0.003578 0.003578 0.003578 0.003578 0.003579 0.003579 0.003579 0.003579 0.003578 
0.00126 0.00126 0.00126 0.00126 0.00126 0.00126 0.00126 0.00126 0.00126 0.00126 0.00126 0.00126 0.00126 0.00126 0.00126 0.00126 0.00126 0.00126 0.00126 0.00126 0.00126 
0.0003872 0.0003871 0.0003871 0.0003871 0.0003871 0.0003871 0.0003871 0.0003871 0.0003871 0.0003871 0.0003871 0.0003871 0.0003871 0.0003871 0.0003871 0.0003872 0.0003872 0.0003872 0.0003872 0.0003872 0.0003872 
0.000103 0.000103 0.000103 0.000103 0.000103 0.000103 0.000103 0.000103 0.000103 0.000103 0.000103 0.000103 0.000103 0.000103 0.000103 0.000103 0.000103 0.000103 0.000103 0.000103 0.000103 
2.355e-05 2.355e-05 2.355e-05 2.355e-05 2.355e-05 2.355e-05 2.355e-05 2.355e-05 2.355e-05 2.355e-05 2.355e-05 2.355e-05 2.355e-05 2.355e-05 2.355e-05 2.355e-05 2.355e-05 2.355e-05 2.355e-05 2.355e-05 2.355e-05 
4.592e-06 4.592e-06 4.591e-06 4.591e-06 4.591e-06 4.591e-06 4.591e-06 4.591e-06 4.592e-06 4.592e-06 4.592e-06 4.592e-06 4.592e-06 4.592e-06 4.592e-06 4.592e-06 4.592e-06 4.592e-06 4.592e-06 4.592e-06 4.592e-06 
7.574e-07 7.573e-07 7.573e-07 7.572e-07 7.572e-07 7.572e-07 7.572e-07 7.573e-07 7.573e-07 7.573e-07 7.573e-07 7.573e-07 7.573e-07 7.573e-07 7.573e-07 7.573e-07 7.573e-07 7.574e-07 7.574e-07 7.574e-07 7.574e-07 
1.048e-07 1.048e-07 1.048e-07 1.048e-07 1.048e-07 1.048e-07 1.048e-07 1.048e-07 1.048e-07 1.048e-07 1.048e-07 1.048e-07 1.048e-07 1.048e-07 1.048e-07 1.048e-07 1.048e-07 1.048e-07 1.048e-07 1.048e-07 1.048e-07 
1.215e-08 1.214e-08 1.214e-08 1.214e-08 1.214e-08 1.214e-08 1.214e-08 1.214e-08 1.214e-08 1.214e-08 1.214e-08 1.214e-08 1.214e-08 1.214e-08 1.214e-08 1.215e-08 1.215e-08 1.215e-08 1.215e-08 1.215e-08 1.215e-08 
1.55e-09 1.55e-09 1.55e-09 1.55e-09 1.55e-09 1.55e-09 1.55e-09 1.55e-09 1.55e-09 1.55e-09 1.55e-09 1.55e-09 1.55e-09 1.55e-09 1.55e-09 1.55e-09 1.55e-09 1.55e-09 1.55e-09 1.55e-09 1.55e-09 
2.239e-09 2.239e-09 2.239e-09 2.239e-09 2.239e-09 2.239e-09 2.239e-09 2.239e-09 2.239e-09 2.239e-09 2.239e-09 2.239e-09 2.239e-09 2.239e-09 2.239e-09 2.239e-09 2.239e-09 2.239e-09 2.239e-09 2.239e-09 2.239e-09 
1.073e-08 1.073e-08 1.073e-08 1.073e-08 1.073e-08 1.073e-08 1.073e-08 1.073e-08 1.073e-08 1.073e-08 1.073e-08 1.073e-08 1.073e-08 1.073e-08 1.073e-08 1.073e-08 1.073e-08 1.073e-08 1.073e-08 1.073e-08 1.073e-08 
4.976e-08 4.976e-08 4.977e-08 4.977e-08 4.977e-08 4.977e-08 4.977e-08 4.977e-08 4.977e-08 4.977e-08 4.977e-08 4.977e-08 4.977e-08 4.977e-08 4.977e-08 4.977e-08 4.977e-08 4.977e-08 4.977e-08 4.976e-08 4.976e-08 
2.148e-07 2.148e-07 2.149e-07 2.149e-07 2.149e-07 2.149e-07 2.149e-07 2.149e-07 2.149e-07 2.149e-07 2.149e-07 2.149e-07 2.149e-07 2.149e-07 2.149e-07 2.149e-07 2.149e-07 2.149e-07 2.149e-07 2.149e-07 2.148e-07 
8.634e-07 8.634e-07 8.634e-07 8.634e-07 8.635e-07 8.635e-07 8.635e-07 8.635e-07 8.635e-07 8.635e-07 8.635e-07 8.635e-07 8.635e-07 8.635e-07 8.635e-07 8.635e-07 8.635e-07 8.634e-07 8.634e-07 8.634e-07 8.634e-07 
3.231e-06 3.231e-06 3.231e-06 3.231e-06 3.231e-06 3.231e-06 3.231e-06 3.231e-06 3.231e-06 3.231e-06 3.231e-06 3.231e-06 3.231e-06 3.231e-06 3.231e-06 3.231e-06 3.231e-06 3.231e-06 3.231e-06 3.231e-06 3.231e-06 
1.126e-05 1.126e-05 1.126e-05 1.126e-05 1.126e-05 1.126e-05 1.126e-05 1.126e-05 1.126e-05 1.126e-05 1.126e-05 1.126e-05 1.126e-05 1.126e-05 1.126e-05 1.126e-05 1.126e-05 1.126e-05 1.126e-05 1.126e-05 1.126e-05 
3.654e-05 3.654e-05 3.654e-05 3.654e-05 3.654e-05 3.654e-05 3.654e-05 3.654e-05 3.654e-05 3.654e-05 3.654e-05 3.654e-05 3.654e-05 3.654e-05 3.654e-05 3.654e-05 3.654e-05 3.654e-05 3.654e-05 3.654e-05 3.654e-05 
0.0001105 0.0001105 0.0001105 0.0001105 0.0001105 0.0001105 0.0001105 0.0001105 0.0001105 0.0001105 0.0001105 0.0001105 0.0001105 0.0001105 0.0001105 0.0001105 0.0001105 0.0001105 0.0001105 0.0001105 0.0001105 
0.0003109 0.0003109 0.0003109 0.0003109 0.0003109 0.0003109 0.0003109 0.0003109 0.0003109 0.0003109 0.0003109 0.0003109 0.0003109 0.0003109 0.0003109 0.0003109 0.0003109 0.0003109 0.0003109 0.0003109 0.0003109 
0.0008147 0.0008147 0.0008147 0.0008148 0.0008148 0.0008148 0.0008148 0.0008148 0.0008148 0.0008148 0.0008148 0.0008148 0.0008148 0.0008148 0.0008148 0.0008148 0.0008148 0.0008148 0.0008148 0.0008147 0.0008147 
</DataArray>
<DataArray Name="E" NumberOfComponents="1" format="ascii" type="Float64">
-0.06315 -0.06316 -0.06318 -0.06318 -0.06319 -0.0632 -0.06321 -0.06321 -0.06322 -0.06323 -0.06323 -0.06324 -0.06324 -0.06325 -0.06326 -0.06326 -0.06327 -0.06328 -0.06329 -0.0633 -0.06332 
-0.06315 -0.06316 -0.06318 -0.06318 -0.06319 -0.0632 -0.06321 -0.06321 -0.06322 -0.06323 -0.06323 -0.06324 -0.06324 -0.06325 -0.06326 -0.06326 -0.06327 -0.06328 -0.06329 -0.0633 -0.06332 
-0.06315 -0.06316 -0.06318 -0.06318 -0.06319 -0.0632 -0.06321 -0.06321 -0.06322 -0.06323 -0.06323 -0.06324 -0.06324 -0.06325 -0.06326 -0.06326 -0.06327 -0.06328 -0.06329 -0.0633 -0.06332 
-0.06315 -0.06316 -0.06318 -0.06318 -0.06319 -0.0632 -0.06321 -0.06321 -0.06322 -0.06323 -0.06323 -0.06324 -0.06324 -0.06325 -0.06326 -0.06326 -0.06327 -0.06328 -0.06329 -0.0633 -0.06332 
-0.06315 -0.06316 -0.06318 -0.06318 -0.06319 -0.0632 -0.06321 -0.06321 -0.06322 -0.06323 -0.06323 -0.06324 -0.06324 -0.06325 -0.06326 -0.06326 -0.06327 -0.06328 -0.06329 -0.0633 -0.06332 
-0.06315 -0.06316 -0.06318 -0.06318 -0.06319 -0.0632 -0.06321 -0.06321 -0.06322 -0.06323 -0.06323 -0.06324 -0.06324 -0.06325 -0.06326 -0.06326 -0.06327 -0.06328 -0.06329 -0.0633 -0.06332 
-0.06315 -0.06316 -0.06318 -0.06318 -0.06319 -0.0632 -0.06321 -0.06321 -0.06322 -0.06323 -0.06323 -0.06324 -0.06324 -0.06325 -0.06326 -0.06326 -0.06327 -0.06328 -0.06329 -0.0633 -0.06332 
-0.06315 -0.06316 -0.06318 -0.06318 -0.06319 -0.0632 -0.06321 -0.06321 -0.06322 -0.06323 -0.06323 -0.06324 -0.06324 -0.06325 -0.06326 -0.06326 -0.06327 -0.06328 -0.06329 -0.0633 -0.06332 
-0.06315 -0.06316 -0.06318 -0.06318 -0.06319 -0.0632 -0.06321 -0.06321 -0.06322 -0.06323 -0.06323 -0.06324 -0.06324 -0.06325 -0.06326 -0.06326 -0.06327 -0.06328 -0.06329 -0.0633 -0.06332 
-0.06315 -0.06316 -0.06318 -0.06318 -0.06319 -0.0632 -0.06321 -0.06321 -0.06322 -0.06323 -0.06323 -0.06324 -0.06324 -0.06325 -0.06326 -0.06326 -0.06327 -0.06328 -0.06329 -0.0633 -0.06332 
-0.06315 -0.06316 -0.06318 -0.06318 -0.06319 -0.0632 -0.06321 -0.06321 -0.06322 -0.06323 -0.06323 -0.06324 -0.06324 -0.06325 -0.06326 -0.06326 -0.06327 -0.06328 -0.06329 -0.0633 -0.06332 
-0.06315 -0.06316 -0.06318 -0.06318 -0.06319 -0.0632 -0.06321 -0.06321 -0.06322 -0.06323 -0.06323 -0.06324 -0.06324 -0.06325 -0.06326 -0.06326 -0.06327 -0.06328 -0.06329 -0.0633 -0.06332 
-0.06315 -0.06316 -0.06318 -0.06318 -0.06319 -0.0632 -0.06321 -0.06321 -0.06322 -0.06323 -0.06323 -0.06324 -0.06324 -0.06325 -0.06326 -0.06326 -0.06327 -0.06328 -0.06329 -0.0633 -0.06332 
-0.06315 -0.06316 -0.06318 -0.06318 -0.06319 -0.0632 -0.06321 -0.06321 -0.06322 -0.06323 -0.06323 -0.06324 -0.06324 -0.06325 -0.06326 -0.06326 -0.06327 -0.06328 -0.06329 -0.0633 -0.06332 
-0.06315 -0.06316 -0.06318 -0.06318 -0.06319 -0.0632 -0.06321 -0.06321 -0.06322 -0.06323 -0.06323 -0.06324 -0.06324 -0.06325 -0.06326 -0.06326 -0.06327 -0.06328 -0.06329 -0.0633 -0.06332 
-0.06315 -0.06316 -0.06318 -0.06318 -0.06319 -0.0632 -0.06321 -0.06321 -0.06322 -0.06323 -0.06323 -0.06324 -0.06324 -0.06325 -0.06326 -0.06326 -0.06327 -0.06328 -0.06329 -0.0633 -0.06332 
-0.06315 -0.06316 -0.06318 -0.06318 -0.06319 -0.0632 -0.06321 -0.06321 -0.06322 -0.06323 -0.06323 -0.06324 -0.06324 -0.06325 -0.06326 -0.06326 -0.06327 -0.06328 -0.06329 -0.0633 -0.06332 
-0.06315 -0.06316 -0.06318 -0.06318 -0.06319 -0.0632 -0.06321 -0.06321 -0.06322 -0.06323 -0.06323 -0.06324 -0.06324 -0.06325 -0.06326 -0.06326 -0.06327 -0.06328 -0.06329 -0.0633 -0.06332 
-0.06315 -0.06316 -0.06318 -0.06318 -0.06319 -0.0632 -0.06321 -0.06321 -0.06322 -0.06323 -0.06323 -0.06324 -0.06324 -0.06325 -0.06326 -0.06326 -0.06327 -0.06328 -0.06329 -0.0633 -0.06332 
-0.06315 -0.06316 -0.06318 -0.06318 -0.06319 -0.0632 -0.06321 -0.06321 -0.06322 -0.06323 -0.06323 -0.06324 -0.06324 -0.06325 -0.06326 -0.06326 -0.06327 -0.06328 -0.06329 -0.0633 -0.06332 
-0.06315 -0.06316 -0.06318 -0.06318 -0.06319 -0.0632 -0.06321 -0.06321 -0.06322 -0.06323 -0.06323 -0.06324 -0.06324 -0.06325 -0.06326 -0.06326 -0.06327 -0.06328 -0.06329 -0.0633 -0.06332 
-0.06315 -0.06316 -0.06318 -0.06318 -0.06319 -0.0632 -0.06321 -0.06321 -0.06322 -0.06323 -0.06323 -0.06324 -0.06324 -0.06325 -0.06326 -0.06326 -0.06327 -0.06328 -0.06329 -0.0633 -0.06332 
-0.06315 -0.06316 -0.06318 -0.06318 -0.06319 -0.0632 -0.06321 -0.06321 -0.06322 -0.06323 -0.06323 -0.06324 -0.06324 -0.06325 -0.06326 -0.06326 -0.06327 -0.06328 -0.06329 -0.0633 -0.06332 
-0.06315 -0.06316 -0.06318 -0.06318 -0.06319 -0.0632 -0.06321 -0.06321 -0.06322 -0.06323 -0.06323 -0.06324 -0.06324 -0.06325 -0.06326 -0.06326 -0.06327 -0.06328 -0.06329 -0.0633 -0.06332 
-0.06315 -0.06316 -0.06318 -0.06318 -0.06319 -0.0632 -0.06321 -0.06321 -0.06322 -0.06323 -0.06323 -0.06324 -0.06324 -0.06325 -0.06326 -0.06326 -0.06327 -0.06328 -0.06329 -0.0633 -0.06332 
-0.06315 -0.06316 -0.06318 -0.06318 -0.06319 -0.0632 -0.06321 -0.06321 -0.06322 -0.06323 -0.06323 -0.06324 -0.06324 -0.06325 -0.06326 -0.06326 -0.06327 -0.06328 -0.06329 -0.0633 -0.06332 
-0.06315 -0.06316 -0.06318 -0.06318 -0.06319 -0.0632 -0.06321 -0.06321 -0.06322 -0.06323 -0.06323 -0.06324 -0.06324 -0.06325 -0.06326 -0.06326 -0.06327 -0.06328 -0.06329 -0.0633 -0.06332 
-0.06315 -0.06316 -0.06318 -0.06318 -0.06319 -0.0632 -0.06321 -0.06321 -0.06322 -0.06323 -0.06323 -0.06324 -0.06324 -0.06325 -0.06326 -0.06326 -0.06327 -0.06328 -0.06329 -0.0633 -0.06332 
-0.06315 -0.06316 -0.06318 -0.06318 -0.06319 -0.0632 -0.06321 -0.06321 -0.06322 -0.06323 -0.06323 -0.06324 -0.06324 -0.06325 -0.06326 -0.06326 -0.06327 -0.06328 -0.06329 -0.0633 -0.06332 
-0.06315 -0.06316 -0.06318 -0.06318 -0.06319 -0.0632 -0.06321 -0.06321 -0.06322 -0.06323 -0.06323 -0.06324 -0.06324 -0.06325 -0.06326 -0.06326 -0.06327 -0.06328 -0.06329 -0.0633 -0.06332 
-0.06315 -0.06316 -0.06318 -0.06318 -0.06319 -0.0632 -0.06321 -0.06321 -0.06322 -0.06323 -0.06323 -0.06324 -0.06324 -0.06325 -0.06326 -0.06326 -0.06327 -0.06328 -0.06329 -0.0633 -0.06332 
-0.06315 -0.06316 -0.06318 -0.06318 -0.06319 -0.0632 -0.06321 -0.06321 -0.06322 -0.06323 -0.06323 -0.06324 -0.06324 -0.06325 -0.06326 -0.06326 -0.06327 -0.06328 -0.06329 -0.0633 -0.06332 
-0.06315 -0.06316 -0.06318 -0.06318 -0.06319 -0.0632 -0.06321 -0.06321 -0.06322 -0.06323 -0.06323 -0.06324 -0.06324 -0.06325 -0.06326 -0.06326 -0.06327 -0.06328 -0.06329 -0.0633 -0.06332 
-0.06315 -0.06316 -0.06318 -0.06318 -0.06319 -0.0632 -0.06321 -0.06321 -0.06322 -0.06323 -0.06323 -0.06324 -0.06324 -0.06325 -0.06326 -0.06326 -0.06327 -0.06328 -0.06329 -0.0633 -0.06332 
-0.06315 -0.06316 -0.06318 -0.06318 -0.06319 -0.0632 -0.06321 -0.06321 -0.06322 -0.06323 -0.06323 -0.06324 -0.06324 -0.06325 -0.06326 -0.06326 -0.06327 -0.06328 -0.06329 -0.0633 -0.06332 
-0.06315 -0.06316 -0.06318 -0.06318 -0.06319 -0.0632 -0.06321 -0.06321 -0.06322 -0.06323 -0.06323 -0.06324 -0.06324 -0.06325 -0.06326 -0.06326 -0.06327 -0.06328 -0.06329 -0.0633 -0.06332 
-0.06315 -0.06316 -0.06318 -0.06318 -0.06319 -0.0632 -0.06321 -0.06321 -0.06322 -0.06323 -0.06323 -0.06324 -0.06324 -0.06325 -0.06326 -0.06326 -0.06327 -0.06328 -0.06329 -0.0633 -0.06332 
-0.06315 -0.06316 -0.06318 -0.06318 -0.06319 -0.0632 -0.06321 -0.06321 -0.06322 -0.06323 -0.06323 -0.06324 -0.06324 -0.06325 -0.06326 -0.06326 -0.06327 -0.06328 -0.06329 -0.0633 -0.06332 
-0.06315 -0.06316 -0.06318 -0.06318 -0.06319 -0.0632 -0.06321 -0.06321 -0.06322 -0.06323 -0.06323 -0.06324 -0.06324 -0.06325 -0.06326 -0.06326 -0.06327 -0.06328 -0.06329 -0.0633 -0.06332 
-0.06315 -0.06316 -0.06318 -0.06318 -0.06319 -0.0632 -0.06321 -0.06321 -0.06322 -0.06323 -0.06323 -0.06324 -0.06324 -0.06325 -0.06326 -0.06326 -0.06327 -0.06328 -0.06329 -0.0633 -0.06332 
-0.06315 -0.06316 -0.06318 -0.06318 -0.06319 -0.0632 -0.06321 -0.06321 -0.06322 -0.06323 -0.06323 -0.06324 -0.06324 -0.06325 -0.06326 -0.06326 -0.06327 -0.06328 -0.06329 -0.0633 -0.06332 
</DataArray>
<DataArray Name="ne" NumberOfComponents="1" format="ascii" type="Float64">
0.9993 0.9993 0.9993 0.9993 0.9993 0.9993 0.9993 0.9993 0.9993 0.9993 0.9993 0.9993 0.9993 0.9993 0.9993 0.9993 0.9993 0.9993 0.9993 0.9993 0.9993 
0.9993 0.9993 0.9993 0.9993 0.9993 0.9993 0.9993 0.9993 0.9993 0.9993 0.9993 0.9993 0.9993 0.9993 0.9993 0.9993 0.9993 0.9993 0.9993 0.9993 0.9993 
0.9993 0.9993 0.9993 0.9993 0.9993 0.9993 0.9993 0.9993 0.9993 0.9993 0.9993 0.9993 0.9993 0.9993 0.9993 0.9993 0.9993 0.9993 0.9993 0.9993 0.9993 
0.9993 0.9993 0.9993 0.9993 0.9993 0.9993 0.9993 0.9993 0.9993 0.9993 0.9993 0.9993 0.9993 0.9993 0.9993 0.9993 0.9993 0.9993 0.9993 0.9993 0.9993 
0.9993 0.9993 0.9993 0.9993 0.9993 0.9993 0.9993 0.9993 0.9993 0.9993 0.9993 0.9993 0.9993 0.9993 0.9993 0.9993 0.9993 0.9993 0.9993 0.9993 0.9993 
0.9993 0.9993 0.9993 0.9993 0.9993 0.9993 0.9993 0.9993 0.9993 0.9993 0.9993 0.9993 0.9993 0.9993 0.9993 0.9993 0.9993 0.9993 0.9993 0.9993 0.9993 
0.9993 0.9993 0.9993 0.9993 0.9993 0.9993 0.9993 0.9993 0.9993 0.9993 0.9993 0.9993 0.9993 0.9993 0.9993 0.9993 0.9993 0.9993 0.9993 0.9993 0.9993 
0.9993 0.9993 0.9993 0.9993 0.9993 0.9993 0.9993 0.9993 0.9993 0.9993 0.9993 0.9993 0.9993 0.9993 0.9993 0.9993 0.9993 0.9993 0.9993 0.9993 0.9993 
0.9993 0.9993 0.9993 0.9993 0.9993 0.9993 0.9993 0.9993 0.9993 0.9993 0.9993 0.9993 0.9993 0.9993 0.9993 0.9993 0.9993 0.9993 0.9993 0.9993 0.9993 
0.9993 0.9993 0.9993 0.9993 0.9993 0.9993 0.9993 0.9993 0.9993 0.9993 0.9993 0.9993 0.9993 0.9993 0.9993 0.9993 0.9993 0.9993 0.9993 0.9993 0.9993 
0.9993 0.9993 0.9993 0.9993 0.9993 0.9993 0.9993 0.9993 0.9993 0.9993 0.9993 0.9993 0.9993 0.9993 0.9993 0.9993 0.9993 0.9993 0.9993 0.9993 0.9993 
0.9993 0.9993 0.9993 0.9993 0.9993 0.9993 0.9993 0.9993 0.9993 0.9993 0.9993 0.9993 0.9993 0.9993 0.9993 0.9993 0.9993 0.9993 0.9993 0.9993 0.9993 
0.9993 0.9993 0.9993 0.9993 0.9993 0.9993 0.9993 0.9993 0.9993 0.9993 0.9993 0.9993 0.9993 0.9993 0.9993 0.9993 0.9993 0.9993 0.9993 0.9993 0.9993 
0.9993 0.9993 0.9993 0.9993 0.9993 0.9993 0.9993 0.9993 0.9993 0.9993 0.9993 0.9993 0.9993 0.9993 0.9993 0.9993 0.9993 0.9993 0.9993 0.9993 0.9993 
0.9993 0.9993 0.9993 0.9993 0.9993 0.9993 0.9993 0.9993 0.9993 0.9993 0.9993 0.9993 0.9993 0.9993 0.9993 0.9993 0.9993 0.9993 0.9993 0.9993 0.9993 
0.9993 0.9993 0.9993 0.9993 0.9993 0.9993 0.9993 0.9993 0.9993 0.9993 0.9993 0.9993 0.9993 0.9993 0.9993 0.9993 0.9993 0.9993 0.9993 0.9993 0.9993 
0.9993 0.9993 0.9993 0.9993 0.9993 0.9993 0.9993 0.9993 0.9993 0.9993 0.9993 0.9993 0.9993 0.9993 0.9993 0.9993 0.9993 0.9993 0.9993 0.9993 0.9993 
0.9993 0.9993 0.9993 0.9993 0.9993 0.9993 0.9993 0.9993 0.9993 0.9993 0.9993 0.9993 0.9993 0.9993 0.9993 0.9993 0.9993 0.9993 0.9993 0.9993 0.9993 
0.9993 0.9993 0.9993 0.9993 0.9993 0.9993 0.9993 0.9993 0.9993 0.9993 0.9993 0.9993 0.9993 0.9993 0.9993 0.9993 0.9993 0.9993 0.9993 0.9993 0.9993 
0.9993 0.9993 0.9993 0.9993 0.9993 0.9993 0.9993 0.9993 0.9993 0.9993 0.9993 0.9993 0.9993 0.9993 0.9993 0.9993 0.9993 0.9993 0.9993 0.9993 0.9993 
0.9993 0.9993 0.9993 0.9993 0.9993 0.9993 0.9993 0.9993 0.9993 0.9993 0.9993 0.9993 0.9993 0.9993 0.9993 0.9993 0.9993 0.9993 0.9993 0.9993 0.9993 
0.9993 0.9993 0.9993 0.9993 0.9993 0.9993 0.9993 0.9993 0.9993 0.9993 0.9993 0.9993 0.9993 0.9993 0.9993 0.9993 0.9993 0.9993 0.9993 0.9993 0.9993 
0.9993 0.9993 0.9993 0.9993 0.9993 0.9993 0.9993 0.9993 0.9993 0.9993 0.9993 0.9993 0.9993 0.9993 0.9993 0.9993 0.9993 0.9993 0.9993 0.9993 0.9993 
0.9993 0.9993 0.9993 0.9993 0.9993 0.9993 0.9993 0.9993 0.9993 0.9993 0.9993 0.9993 0.9993 0.9993 0.9993 0.9993 0.9993 0.9993 0.9993 0.9993 0.9993 
0.9993 0.9993 0.9993 0.9993 0.9993 0.9993 0.9993 0.9993 0.9993 0.9993 0.9993 0.9993 0.9993 0.9993 0.9993 0.9993 0.9993 0.9993 0.9993 0.9993 0.9993 
0.9993 0.9993 0.9993 0.9993 0.9993 0.9993 0.9993 0.9993 0.9993 0.9993 0.9993 0.9993 0.9993 0.9993 0.9993 0.9993 0.9993 0.9993 0.9993 0.9993 0.9993 
0.9993 0.9993 0.9993 0.9993 0.9993 0.9993 0.9993 0.9993 0.9993 0.9993 0.9993 0.9993 0.9993 0.9993 0.9993 0.9993 0.9993 0.9993 0.9993 0.9993 0.9993 
0.9993 0.9993 0.9993 0.9993 0.9993 0.9993 0.9993 0.9993 0.9993 0.9993 0.9993 0.9993 0.9993 0.9993 0.9993 0.9993 0.9993 0.9993 0.9993 0.9993 0.9993 
0.9993 0.9993 0.9993 0.9993 0.9993 0.9993 0.9993 0.9993 0.9993 0.9993 0.9993 0.9993 0.9993 0.9993 0.9993 0.9993 0.9993 0.9993 0.9993 0.9993 0.9993 
0.9993 0.9993 0.9993 0.9993 0.9993 0.9993 0.9993 0.9993 0.9993 0.9993 0.9993 0.9993 0.9993 0.9993 0.9993 0.9993 0.9993 0.9993 0.9993 0.9993 0.9993 
0.9993 0.9993 0.9993 0.9993 0.9993 0.9993 0.9993 0.9993 0.9993 0.9993 0.9993 0.9993 0.9993 0.9993 0.9993 0.9993 0.9993 0.9993 0.9993 0.9993 0.9993 
0.9993 0.9993 0.9993 0.9993 0.9993 0.9993 0.9993 0.9993 0.9993 0.9993 0.9993 0.9993 0.9993 0.9993 0.9993 0.9993 0.9993 0.9993 0.9993 0.9993 0.9993 
0.9993 0.9993 0.9993 0.9993 0.9993 0.9993 0.9993 0.9993 0.9993 0.9993 0.9993 0.9993 0.9993 0.9993 0.9993 0.9993 0.9993 0.9993 0.9993 0.9993 0.9993 
0.9993 0.9993 0.9993 0.9993 0.9993 0.9993 0.9993 0.9993 0.9993 0.9993 0.9993 0.9993 0.9993 0.9993 0.9993 0.9993 0.9993 0.9993 0.9993 0.9993 0.9993 
0.9993 0.9993 0.9993 0.9993 0.9993 0.9993 0.9993 0.9993 0.9993 0.9993 0.9993 0.9993 0.9993 0.9993 0.9993 0.9993 0.9993 0.9993 0.9993 0.9993 0.9993 
0.9993 0.9993 0.9993 0.9993 0.9993 0.9993 0.9993 0.9993 0.9993 0.9993 0.9993 0.9993 0.9993 0.9993 0.9993 0.9993 0.9993 0.9993 0.9993 0.9993 0.9993 
0.9993 0.9993 0.9993 0.9993 0.9993 0.9993 0.9993 0.9993 0.9993 0.9993 0.9993 0.9993 0.9993 0.9993 0.9993 0.9993 0.9993 0.9993 0.9993 0.9993 0.9993 
0.9993 0.9993 0.9993 0.9993 0.9993 0.9993 0.9993 0.9993 0.9993 0.9993 0.9993 0.9993 0.9993 0.9993 0.9993 0.9993 0.9993 0.9993 0.9993 0.9993 0.9993 
0.9993 0.9993 0.9993 0.9993 0.9993 0.9993 0.9993 0.9993 0.9993 0.9993 0.9993 0.9993 0.9993 0.9993 0.9993 0.9993 0.9993 0.9993 0.9993 0.9993 0.9993 
0.9993 0.9993 0.9993 0.9993 0.9993 0.9993 0.9993 0.9993 0.9993 0.9993 0.9993 0.9993 0.9993 0.9993 0.9993 0.9993 0.9993 0.9993 0.9993 0.9993 0.9993 
0.9993 0.9993 0.9993 0.9993 0.9993 0.9993 0.9993 0.9993 0.9993 0.9993 0.9993 0.9993 0.9993 0.9993 0.9993 0.9993 0.9993 0.9993 0.9993 0.9993 0.9993 
</DataArray>
</PointData>
</Piece>
</ImageData>
</VTKFile>
