<VTKFile type="ImageData">
<ImageData Origin="0 -10 0" Spacing="0.5 0.5 1" WholeExtent="0 20 0 40 0 0">
<Piece Extent="0 20 0 40 0 0">
<PointData>
<DataArray Name="f" NumberOfComponents="1" format="ascii" type="Float64">
0.0005106 0.0005106 0.0005106 0.0005106 0.0005106 0.0005106 0.0005106 0.0005106 0.0005106 0.0005106 0.0005106 0.0005106 0.0005106 0.0005106 0.0005106 0.0005106 0.0005106 0.0005106 0.0005106 0.0005106 0.0005106 
0.001243 0.001243 0.001243 0.001243 0.001243 0.001243 0.001243 0.001243 0.001243 0.001243 0.001243 0.001243 0.001243 0.001243 0.001243 0.001243 0.001243 0.001243 0.001243 0.001243 0.001243 
0.002826 0.002826 0.002826 0.002826 0.002826 0.002826 0.002826 0.002826 0.002826 0.002826 0.002826 0.002826 0.002826 0.002826 0.002826 0.002826 0.002826 0.002826 0.002826 0.002826 0.002826 
0.006 0.006 0.006 0.006 0.006 0.006 0.006 0.006 0.006 0.006 0.006 0.006 0.006 0.006 0.006 0.006 0.006 0.006 0.006 0.006 0.006 
0.01189 0.01189 0.01189 0.01189 0.01189 0.01189 0.01189 0.01189 0.01189 0.01189 0.01189 0.01189 0.01189 0.01189 0.01189 0.01189 0.01189 0.01189 0.01189 0.01189 0.01189 
0.02198 0.02198 0.02198 0.02198 0.02198 0.02198 0.02198 0.02198 0.02198 0.02198 0.02198 0.02198 0.02198 0.02198 0.02198 0.02198 0.02198 0.02198 0.02198 0.02198 0.02198 
0.03788 0.03788 0.03788 0.03788 0.03788 0.03788 0.03788 0.03788 0.03788 0.03788 0.03788 0.03788 0.03788 0.03788 0.03788 0.03788 0.03788 0.03788 0.03788 0.03788 0.03788 
0.06081 0.06081 0.06081 0.06081 0.06081 0.06081 0.06081 0.06081 0.06081 0.06081 0.06081 0.06081 0.06081 0.06081 0.06081 0.06081 0.06081 0.06081 0.06081 0.06081 0.06081 
0.09088 0.09088 0.09088 0.09088 0.09088 0.09088 0.09088 0.09088 0.09088 0.09088 0.09088 0.09088 0.09088 0.09088 0.09088 0.09088 0.09088 0.09088 0.09088 0.09088 0.09088 
0.1263 0.1263 0.1263 0.1263 0.1263 0.1263 0.1263 0.1263 0.1263 0.1263 0.1263 0.1263 0.1263 0.1263 0.1263 0.1263 0.1263 0.1263 0.1263 0.1263 0.1263 
0.1631 0.1631 0.1631 0.1631 0.1631 0.1631 0.1631 0.1631 0.1631 0.1631 0.1631 0.1631 0.1631 0.1631 0.1631 0.1631 0.1631 0.1631 0.1631 0.1631 0.1631 
0.1955 0.1955 0.1955 0.1955 0.1955 0.1955 0.1955 0.1955 0.1955 0.1955 0.1955 0.1955 0.1955 0.1955 0.1955 0.1955 0.1955 0.1955 0.1955 0.1955 0.1955 
0.2172 0.2172 0.2172 0.2172 0.2172 0.2172 0.2172 0.2172 0.2172 0.2172 0.2172 0.2172 0.2172 0.2172 0.2172 0.2172 0.2172 0.2172 0.2172 0.2172 0.2172 
0.2234 0.2234 0.2234 0.2234 0.2234 0.2234 0.2234 0.2234 0.2234 0.2234 0.2234 0.2234 0.2234 0.2234 0.2234 0.2234 0.2234 0.2234 0.2234 0.2234 0.2234 
0.2124 0.2124 0.2124 0.2124 0.2124 0.2124 0.2124 0.2124 0.2124 0.2124 0.2124 0.2124 0.2124 0.2124 0.2124 0.2124 0.2124 0.2124 0.2124 0.2124 0.2124 
0.1864 0.1864 0.1864 0.1864 0.1864 0.1864 0.1864 0.1864 0.1864 0.1864 0.1864 0.1864 0.1864 0.1864 0.1864 0.1864 0.1864 0.1864 0.1864 0.1864 0.1864 
0.1508 0.1508 0.1508 0.1508 0.1508 0.1508 0.1508 0.1508 0.1508 0.1508 0.1508 0.1508 0.1508 0.1508 0.1508 0.1508 0.1508 0.1508 0.1508 0.1508 0.1508 
0.1122 0.1122 0.1122 0.1122 0.1122 0.1122 0.1122 0.1122 0.1122 0.1122 0.1122 0.1122 0.1122 0.1122 0.1122 0.1122 0.1122 0.1122 0.1122 0.1122 0.1122 
0.0767 0.0767 0.0767 0.0767 0.0767 0.0767 0.0767 0.0767 0.0767 0.0767 0.0767 0.0767 0.0767 0.0767 0.0767 0.0767 0.0767 0.0767 0.0767 0.0767 0.0767 
0.04805 0.04805 0.04805 0.04805 0.04805 0.04805 0.04805 0.04805 0.04805 0.04805 0.04805 0.04805 0.04805 0.04805 0.04805 0.04805 0.04805 0.04805 0.04805 0.04805 0.04805 
0.02754 0.02754 0.02754 0.02754 0.02754 0.02754 0.02754 0.02754 0.02754 0.02754 0.02754 0.02754 0.02754 0.02754 0.02754 0.02754 0.02754 0.02754 0.02754 0.02754 0.02754 
0.01441 0.01441 0.01441 0.01441 0.01441 0.01441 0.01441 0.01441 0.01441 0.01441 0.01441 0.01441 0.01441 0.01441 0.01441 0.01441 0.01441 0.01441 0.01441 0.01441 0.01441 
0.006867 0.006867 0.006866 0.006866 0.006866 0.006867 0.006867 0.006867 0.006867 0.006867 0.006867 0.006867 0.006867 0.006867 0.006867 0.006868 0.006868 0.006868 0.006868 0.006868 0.006867 
0.002974 0.002974 0.002974 0.002974 0.002974 0.002974 0.002974 0.002974 0.002974 0.002974 0.002974 0.002974 0.002974 0.002974 0.002974 0.002974 0.002974 0.002974 0.002975 0.002975 0.002974 
0.001168 0.001168 0.001168 0.001168 0.001168 0.001168 0.001168 0.001168 0.001168 0.001168 0.001168 0.001168 0.001168 0.001168 0.001168 0.001168 0.001168 0.001168 0.001168 0.001168 0.001168 
0.0004147 0.0004147 0.0004147 0.0004147 0.0004146 0.0004146 0.0004146 0.0004146 0.0004146 0.0004146 0.0004146 0.0004146 0.0004146 0.0004147 0.0004147 0.0004147 0.0004147 0.0004147 0.0004147 0.0004147 0.0004147 
0.0001328 0.0001328 0.0001328 0.0001328 0.0001328 0.0001328 0.0001328 0.0001328 0.0001328 0.0001328 0.0001328 0.0001328 0.0001328 0.0001328 0.0001328 0.0001328 0.0001328 0.0001328 0.0001328 0.0001328 0.0001328 
3.826e-05 3.826e-05 3.826e-05 3.826e-05 3.826e-05 3.826e-05 3.825e-05 3.825e-05 3.825e-05 3.825e-05 3.825e-05 3.825e-05 3.825e-05 3.825e-05 3.826e-05 3.826e-05 3.826e-05 3.826e-05 3.826e-05 3.826e-05 3.826e-05 
9.886e-06 9.887e-06 9.886e-06 9.886e-06 9.886e-06 9.885e-06 9.884e-06 9.884e-06 9.883e-06 9.883e-06 9.883e-06 9.883e-06 9.883e-06 9.884e-06 9.884e-06 9.884e-06 9.884e-06 9.885e-06 9.885e-06 9.886e-06 9.886e-06 
2.284e-06 2.284e-06 2.284e-06 2.284e-06 2.284e-06 2.284e-06 2.284e-06 2.284e-06 2.284e-06 2.284e-06 2.284e-06 2.283e-06 2.284e-06 2.284e-06 2.284e-06 2.284e-06 2.284e-06 2.284e-06 2.284e-06 2.284e-06 2.284e-06 
4.707e-07 4.708e-07 4.708e-07 4.708e-07 4.708e-07 4.707e-07 4.707e-07 4.707e-07 4.707e-07 4.706e-07 4.706e-07 4.706e-07 4.706e-07 4.706e-07 4.706e-07 4.706e-07 4.706e-07 4.707e-07 4.707e-07 4.707e-07 4.707e-07 
8.773e-08 8.774e-08 8.774e-08 8.774e-08 8.774e-08 8.774e-08 8.774e-08 8.773e-08 8.773e-08 8.772e-08 8.772e-08 8.771e-08 8.771e-08 8.771e-08 8.771e-08 8.771e-08 8.772e-08 8.772e-08 8.772e-08 8.773e-08 8.773e-08 
2.195e-08 2.195e-08 2.195e-08 2.195e-08 2.195e-08 2.195e-08 2.195e-08 2.195e-08 2.195e-08 2.195e-08 2.195e-08 2.195e-08 2.195e-08 2.195e-08 2.195e-08 2.195e-08 2.195e-08 2.195e-08 2.195e-08 2.195e-08 2.195e-08 
3.798e-08 3.798e-08 3.798e-08 3.798e-08 3.798e-08 3.798e-08 3.798e-08 3.798e-08 3.798e-08 3.798e-08 3.798e-08 3.798e-08 3.798e-08 3.798e-08 3.798e-08 3.798e-08 3.798e-08 3.798e-08 3.798e-08 3.798e-08 3.798e-08 
1.512e-07 1.512e-07 1.512e-07 1.512e-07 1.512e-07 1.512e-07 1.512e-07 1.512e-07 1.512e-07 1.512e-07 1.512e-07 1.512e-07 1.512e-07 1.512e-07 1.512e-07 1.512e-07 1.512e-07 1.512e-07 1.512e-07 1.512e-07 1.512e-07 
5.91e-07 5.91e-07 5.91e-07 5.91e-07 5.91e-07 5.91e-07 5.91e-07 5.91e-07 5.91e-07 5.91e-07 5.91e-07 5.91e-07 5.91e-07 5.91e-07 5.91e-07 5.91e-07 5.91e-07 5.91e-07 5.91e-07 5.91e-07 5.91e-07 
2.161e-06 2.161e-06 2.161e-06 2.161e-06 2.161e-06 2.161e-06 2.161e-06 2.161e-06 2.161e-06 2.161e-06 2.161e-06 2.161e-06 2.161e-06 2.161e-06 2.161e-06 2.161e-06 2.161e-06 2.161e-06 2.161e-06 2.161e-06 2.161e-06 
7.382e-06 7.382e-06 7.382e-06 7.383e-06 7.383e-06 7.383e-06 7.383e-06 7.383e-06 7.383e-06 7.383e-06 7.383e-06 7.383e-06 7.383e-06 7.383e-06 7.383e-06 7.383e-06 7.383e-06 7.383e-06 7.383e-06 7.383e-06 7.382e-06 
2.357e-05 2.357e-05 2.357e-05 2.357e-05 2.357e-05 2.357e-05 2.357e-05 2.357e-05 2.357e-05 2.357e-05 2.357e-05 2.357e-05 2.357e-05 2.357e-05 2.357e-05 2.357e-05 2.357e-05 2.357e-05 2.357e-05 2.357e-05 2.357e-05 
7.03e-05 7.03e-05 7.03e-05 7.03e-05 7.03e-05 7.03e-05 7.03e-05 7.03e-05 7.031e-05 7.031e-05 7.031e-05 7.031e-05 7.031e-05 7.031e-05 7.031e-05 7.031e-05 7.031e-05 7.031e-05 7.031e-05 7.031e-05 7.03e-05 
0.000196 0.000196 0.000196 0.000196 0.000196 0.000196 0.000196 0.000196 0.000196 0.000196 0.000196 0.000196 0.000196 0.000196 0.000196 0.000196 0.000196 0.000196 0.000196 0.000196 0.000196 
</DataArray>
<DataArray Name="E" NumberOfComponents="1" format="ascii" type="Float64">
-1.254 -1.254 -1.254 -1.254 -1.254 -1.254 -1.254 -1.254 -1.254 -1.254 -1.254 -1.254 -1.254 -1.254 -1.254 -1.254 -1.254 -1.254 -1.254 -1.254 -1.254 
-1.254 -1.254 -1.254 -1.254 -1.254 -1.254 -1.254 -1.254 -1.254 -1.254 -1.254 -1.254 -1.254 -1.254 -1.254 -1.254 -1.254 -1.254 -1.254 -1.254 -1.254 
-1.254 -1.254 -1.254 -1.254 -1.254 -1.254 -1.254 -1.254 -1.254 -1.254 -1.254 -1.254 -1.254 -1.254 -1.254 -1.254 -1.254 -1.254 -1.254 -1.254 -1.254 
-1.254 -1.254 -1.254 -1.254 -1.254 -1.254 -1.254 -1.254 -1.254 -1.254 -1.254 -1.254 -1.254 -1.254 -1.254 -1.254 -1.254 -1.254 -1.254 -1.254 -1.254 
-1.254 -1.254 -1.254 -1.254 -1.254 -1.254 -1.254 -1.254 -1.254 -1.254 -1.254 -1.254 -1.254 -1.254 -1.254 -1.254 -1.254 -1.254 -1.254 -1.254 -1.254 
-1.254 -1.254 -1.254 -1.254 -1.254 -1.254 -1.254 -1.254 -1.254 -1.254 -1.254 -1.254 -1.254 -1.254 -1.254 -1.254 -1.254 -1.254 -1.254 -1.254 -1.254 
-1.254 -1.254 -1.254 -1.254 -1.254 -1.254 -1.254 -1.254 -1.254 -1.254 -1.254 -1.254 -1.254 -1.254 -1.254 -1.254 -1.254 -1.254 -1.254 -1.254 -1.254 
-1.254 -1.254 -1.254 -1.254 -1.254 -1.254 -1.254 -1.254 -1.254 -1.254 -1.254 -1.254 -1.254 -1.254 -1.254 -1.254 -1.254 -1.254 -1.254 -1.254 -1.254 
-1.254 -1.254 -1.254 -1.254 -1.254 -1.254 -1.254 -1.254 -1.254 -1.254 -1.254 -1.254 -1.254 -1.254 -1.254 -1.254 -1.254 -1.254 -1.254 -1.254 -1.254 
-1.254 -1.254 -1.254 -1.254 -1.254 -1.254 -1.254 -1.254 -1.254 -1.254 -1.254 -1.254 -1.254 -1.254 -1.254 -1.254 -1.254 -1.254 -1.254 -1.254 -1.254 
-1.254 -1.254 -1.254 -1.254 -1.254 -1.254 -1.254 -1.254 -1.254 -1.254 -1.254 -1.254 -1.254 -1.254 -1.254 -1.254 -1.254 -1.254 -1.254 -1.254 -1.254 
-1.254 -1.254 -1.254 -1.254 -1.254 -1.254 -1.254 -1.254 -1.254 -1.254 -1.254 -1.254 -1.254 -1.254 -1.254 -1.254 -1.254 -1.254 -1.254 -1.254 -1.254 
-1.254 -1.254 -1.254 -1.254 -1.254 -1.254 -1.254 -1.254 -1.254 -1.254 -1.254 -1.254 -1.254 -1.254 -1.254 -1.254 -1.254 -1.254 -1.254 -1.254 -1.254 
-1.254 -1.254 -1.254 -1.254 -1.254 -1.254 -1.254 -1.254 -1.254 -1.254 -1.254 -1.254 -1.254 -1.254 -1.254 -1.254 -1.254 -1.254 -1.254 -1.254 -1.254 
-1.254 -1.254 -1.254 -1.254 -1.254 -1.254 -1.254 -1.254 -1.254 -1.254 -1.254 -1.254 -1.254 -1.254 -1.254 -1.254 -1.254 -1.254 -1.254 -1.254 -1.254 
-1.254 -1.254 -1.254 -1.254 -1.254 -1.254 -1.254 -1.254 -1.254 -1.254 -1.254 -1.254 -1.254 -1.254 -1.254 -1.254 -1.254 -1.254 -1.254 -1.254 -1.254 
-1.254 -1.254 -1.254 -1.254 -1.254 -1.254 -1.254 -1.254 -1.254 -1.254 -1.254 -1.254 -1.254 -1.254 -1.254 -1.254 -1.254 -1.254 -1.254 -1.254 -1.254 
-1.254 -1.254 -1.254 -1.254 -1.254 -1.254 -1.254 -1.254 -1.254 -1.254 -1.254 -1.254 -1.254 -1.254 -1.254 -1.254 -1.254 -1.254 -1.254 -1.254 -1.254 
-1.254 -1.254 -1.254 -1.254 -1.254 -1.254 -1.254 -1.254 -1.254 -1.254 -1.254 -1.254 -1.254 -1.254 -1.254 -1.254 -1.254 -1.254 -1.254 -1.254 -1.254 
-1.254 -1.254 -1.254 -1.254 -1.254 -1.254 -1.254 -1.254 -1.254 -1.254 -1.254 -1.254 -1.254 -1.254 -1.254 -1.254 -1.254 -1.254 -1.254 -1.254 -1.254 
-1.254 -1.254 -1.254 -1.254 -1.254 -1.254 -1.254 -1.254 -1.254 -1.254 -1.254 -1.254 -1.254 -1.254 -1.254 -1.254 -1.254 -1.254 -1.254 -1.254 -1.254 
-1.254 -1.254 -1.254 -1.254 -1.254 -1.254 -1.254 -1.254 -1.254 -1.254 -1.254 -1.254 -1.254 -1.254 -1.254 -1.254 -1.254 -1.254 -1.254 -1.254 -1.254 
-1.254 -1.254 -1.254 -1.254 -1.254 -1.254 -1.254 -1.254 -1.254 -1.254 -1.254 -1.254 -1.254 -1.254 -1.254 -1.254 -1.254 -1.254 -1.254 -1.254 -1.254 
-1.254 -1.254 -1.254 -1.254 -1.254 -1.254 -1.254 -1.254 -1.254 -1.254 -1.254 -1.254 -1.254 -1.254 -1.254 -1.254 -1.254 -1.254 -1.254 -1.254 -1.254 
-1.254 -1.254 -1.254 -1.254 -1.254 -1.254 -1.254 -1.254 -1.254 -1.254 -1.254 -1.254 -1.254 -1.254 -1.254 -1.254 -1.254 -1.254 -1.254 -1.254 -1.254 
-1.254 -1.254 -1.254 -1.254 -1.254 -1.254 -1.254 -1.254 -1.254 -1.254 -1.254 -1.254 -1.254 -1.254 -1.254 -1.254 -1.254 -1.254 -1.254 -1.254 -1.254 
-1.254 -1.254 -1.254 -1.254 -1.254 -1.254 -1.254 -1.254 -1.254 -1.254 -1.254 -1.254 -1.254 -1.254 -1.254 -1.254 -1.254 -1.254 -1.254 -1.254 -1.254 
-1.254 -1.254 -1.254 -1.254 -1.254 -1.254 -1.254 -1.254 -1.254 -1.254 -1.254 -1.254 -1.254 -1.254 -1.254 -1.254 -1.254 -1.254 -1.254 -1.254 -1.254 
-1.254 -1.254 -1.254 -1.254 -1.254 -1.254 -1.254 -1.254 -1.254 -1.254 -1.254 -1.254 -1.254 -1.254 -1.254 -1.254 -1.254 -1.254 -1.254 -1.254 -1.254 
-1.254 -1.254 -1.254 -1.254 -1.254 -1.254 -1.254 -1.254 -1.254 -1.254 -1.254 -1.254 -1.254 -1.254 -1.254 -1.254 -1.254 -1.254 -1.254 -1.254 -1.254 
-1.254 -1.254 -1.254 -1.254 -1.254 -1.254 -1.254 -1.254 -1.254 -1.254 -1.254 -1.254 -1.254 -1.254 -1.254 -1.254 -1.254 -1.254 -1.254 -1.254 -1.254 
-1.254 -1.254 -1.254 -1.254 -1.254 -1.254 -1.254 -1.254 -1.254 -1.254 -1.254 -1.254 -1.254 -1.254 -1.254 -1.254 -1.254 -1.254 -1.254 -1.254 -1.254 
-1.254 -1.254 -1.254 -1.254 -1.254 -1.254 -1.254 -1.254 -1.254 -1.254 -1.254 -1.254 -1.254 -1.254 -1.254 -1.254 -1.254 -1.254 -1.254 -1.254 -1.254 
-1.254 -1.254 -1.254 -1.254 -1.254 -1.254 -1.254 -1.254 -1.254 -1.254 -1.254 -1.254 -1.254 -1.254 -1.254 -1.254 -1.254 -1.254 -1.254 -1.254 -1.254 
-1.254 -1.254 -1.254 -1.254 -1.254 -1.254 -1.254 -1.254 -1.254 -1.254 -1.254 -1.254 -1.254 -1.254 -1.254 -1.254 -1.254 -1.254 -1.254 -1.254 -1.254 
-1.254 -1.254 -1.254 -1.254 -1.254 -1.254 -1.254 -1.254 -1.254 -1.254 -1.254 -1.254 -1.254 -1.254 -1.254 -1.254 -1.254 -1.254 -1.254 -1.254 -1.254 
-1.254 -1.254 -1.254 -1.254 -1.254 -1.254 -1.254 -1.254 -1.254 -1.254 -1.254 -1.254 -1.254 -1.254 -1.254 -1.254 -1.254 -1.254 -1.254 -1.254 -1.254 
-1.254 -1.254 -1.254 -1.254 -1.254 -1.254 -1.254 -1.254 -1.254 -1.254 -1.254 -1.254 -1.254 -1.254 -1.254 -1.254 -1.254 -1.254 -1.254 -1.254 -1.254 
-1.254 -1.254 -1.254 -1.254 -1.254 -1.254 -1.254 -1.254 -1.254 -1.254 -1.254 -1.254 -1.254 -1.254 -1.254 -1.254 -1.254 -1.254 -1.254 -1.254 -1.254 
-1.254 -1.254 -1.254 -1.254 -1.254 -1.254 -1.254 -1.254 -1.254 -1.254 -1.254 -1.254 -1.254 -1.254 -1.254 -1.254 -1.254 -1.254 -1.254 -1.254 -1.254 
-1.254 -1.254 -1.254 -1.254 -1.254 -1.254 -1.254 -1.254 -1.254 -1.254 -1.254 -1.254 -1.254 -1.254 -1.254 -1.254 -1.254 -1.254 -1.254 -1.254 -1.254 
</DataArray>
<DataArray Name="ne" NumberOfComponents="1" format="ascii" type="Float64">
0.9998 0.9998 0.9998 0.9998 0.9998 0.9998 0.9998 0.9998 0.9998 0.9998 0.9998 0.9998 0.9998 0.9998 0.9998 0.9998 0.9998 0.9998 0.9998 0.9998 0.9998 
0.9998 0.9998 0.9998 0.9998 0.9998 0.9998 0.9998 0.9998 0.9998 0.9998 0.9998 0.9998 0.9998 0.9998 0.9998 0.9998 0.9998 0.9998 0.9998 0.9998 0.9998 
0.9998 0.9998 0.9998 0.9998 0.9998 0.9998 0.9998 0.9998 0.9998 0.9998 0.9998 0.9998 0.9998 0.9998 0.9998 0.9998 0.9998 0.9998 0.9998 0.9998 0.9998 
0.9998 0.9998 0.9998 0.9998 0.9998 0.9998 0.9998 0.9998 0.9998 0.9998 0.9998 0.9998 0.9998 0.9998 0.9998 0.9998 0.9998 0.9998 0.9998 0.9998 0.9998 
0.9998 0.9998 0.9998 0.9998 0.9998 0.9998 0.9998 0.9998 0.9998 0.9998 0.9998 0.9998 0.9998 0.9998 0.9998 0.9998 0.9998 0.9998 0.9998 0.9998 0.9998 
0.9998 0.9998 0.9998 0.9998 0.9998 0.9998 0.9998 0.9998 0.9998 0.9998 0.9998 0.9998 0.9998 0.9998 0.9998 0.9998 0.9998 0.9998 0.9998 0.9998 0.9998 
0.9998 0.9998 0.9998 0.9998 0.9998 0.9998 0.9998 0.9998 0.9998 0.9998 0.9998 0.9998 0.9998 0.9998 0.9998 0.9998 0.9998 0.9998 0.9998 0.9998 0.9998 
0.9998 0.9998 0.9998 0.9998 0.9998 0.9998 0.9998 0.9998 0.9998 0.9998 0.9998 0.9998 0.9998 0.9998 0.9998 0.9998 0.9998 0.9998 0.9998 0.9998 0.9998 
0.9998 0.9998 0.9998 0.9998 0.9998 0.9998 0.9998 0.9998 0.9998 0.9998 0.9998 0.9998 0.9998 0.9998 0.9998 0.9998 0.9998 0.9998 0.9998 0.9998 0.9998 
0.9998 0.9998 0.9998 0.9998 0.9998 0.9998 0.9998 0.9998 0.9998 0.9998 0.9998 0.9998 0.9998 0.9998 0.9998 0.9998 0.9998 0.9998 0.9998 0.9998 0.9998 
0.9998 0.9998 0.9998 0.9998 0.9998 0.9998 0.9998 0.9998 0.9998 0.9998 0.9998 0.9998 0.9998 0.9998 0.9998 0.9998 0.9998 0.9998 0.9998 0.9998 0.9998 
0.9998 0.9998 0.9998 0.9998 0.9998 0.9998 0.9998 0.9998 0.9998 0.9998 0.9998 0.9998 0.9998 0.9998 0.9998 0.9998 0.9998 0.9998 0.9998 0.9998 0.9998 
0.9998 0.9998 0.9998 0.9998 0.9998 0.9998 0.9998 0.9998 0.9998 0.9998 0.9998 0.9998 0.9998 0.9998 0.9998 0.9998 0.9998 0.9998 0.9998 0.9998 0.9998 
0.9998 0.9998 0.9998 0.9998 0.9998 0.9998 0.9998 0.9998 0.9998 0.9998 0.9998 0.9998 0.9998 0.9998 0.9998 0.9998 0.9998 0.9998 0.9998 0.9998 0.9998 
0.9998 0.9998 0.9998 0.9998 0.9998 0.9998 0.9998 0.9998 0.9998 0.9998 0.9998 0.9998 0.9998 0.9998 0.9998 0.9998 0.9998 0.9998 0.9998 0.9998 0.9998 
0.9998 0.9998 0.9998 0.9998 0.9998 0.9998 0.9998 0.9998 0.9998 0.9998 0.9998 0.9998 0.9998 0.9998 0.9998 0.9998 0.9998 0.9998 0.9998 0.9998 0.9998 
0.9998 0.9998 0.9998 0.9998 0.9998 0.9998 0.9998 0.9998 0.9998 0.9998 0.9998 0.9998 0.9998 0.9998 0.9998 0.9998 0.9998 0.9998 0.9998 0.9998 0.9998 
0.9998 0.9998 0.9998 0.9998 0.9998 0.9998 0.9998 0.9998 0.9998 0.9998 0.9998 0.9998 0.9998 0.9998 0.9998 0.9998 0.9998 0.9998 0.9998 0.9998 0.9998 
0.9998 0.9998 0.9998 0.9998 0.9998 0.9998 0.9998 0.9998 0.9998 0.9998 0.9998 0.9998 0.9998 0.9998 0.9998 0.9998 0.9998 0.9998 0.9998 0.9998 0.9998 
0.9998 0.9998 0.9998 0.9998 0.9998 0.9998 0.9998 0.9998 0.9998 0.9998 0.9998 0.9998 0.9998 0.9998 0.9998 0.9998 0.9998 0.9998 0.9998 0.9998 0.9998 
0.9998 0.9998 0.9998 0.9998 0.9998 0.9998 0.9998 0.9998 0.9998 0.9998 0.9998 0.9998 0.9998 0.9998 0.9998 0.9998 0.9998 0.9998 0.9998 0.9998 0.9998 
0.9998 0.9998 0.9998 0.9998 0.9998 0.9998 0.9998 0.9998 0.9998 0.9998 0.9998 0.9998 0.9998 0.9998 0.9998 0.9998 0.9998 0.9998 0.9998 0.9998 0.9998 
0.9998 0.9998 0.9998 0.9998 0.9998 0.9998 0.9998 0.9998 0.9998 0.9998 0.9998 0.9998 0.9998 0.9998 0.9998 0.9998 0.9998 0.9998 0.9998 0.9998 0.9998 
0.9998 0.9998 0.9998 0.9998 0.9998 0.9998 0.9998 0.9998 0.9998 0.9998 0.9998 0.9998 0.9998 0.9998 0.9998 0.9998 0.9998 0.9998 0.9998 0.9998 0.9998 
0.9998 0.9998 0.9998 0.9998 0.9998 0.9998 0.9998 0.9998 0.9998 0.9998 0.9998 0.9998 0.9998 0.9998 0.9998 0.9998 0.9998 0.9998 0.9998 0.9998 0.9998 
0.9998 0.9998 0.9998 0.9998 0.9998 0.9998 0.9998 0.9998 0.9998 0.9998 0.9998 0.9998 0.9998 0.9998 0.9998 0.9998 0.9998 0.9998 0.9998 0.9998 0.9998 
0.9998 0.9998 0.9998 0.9998 0.9998 0.9998 0.9998 0.9998 0.9998 0.9998 0.9998 0.9998 0.9998 0.9998 0.9998 0.9998 0.9998 0.9998 0.9998 0.9998 0.9998 
0.9998 0.9998 0.9998 0.9998 0.9998 0.9998 0.9998 0.9998 0.9998 0.9998 0.9998 0.9998 0.9998 0.9998 0.9998 0.9998 0.9998 0.9998 0.9998 0.9998 0.9998 
0.9998 0.9998 0.9998 0.9998 0.9998 0.9998 0.9998 0.9998 0.9998 0.9998 0.9998 0.9998 0.9998 0.9998 0.9998 0.9998 0.9998 0.9998 0.9998 0.9998 0.9998 
0.9998 0.9998 0.9998 0.9998 0.9998 0.9998 0.9998 0.9998 0.9998 0.9998 0.9998 0.9998 0.9998 0.9998 0.9998 0.9998 0.9998 0.9998 0.9998 0.9998 0.9998 
0.9998 0.9998 0.9998 0.9998 0.9998 0.9998 0.9998 0.9998 0.9998 0.9998 0.9998 0.9998 0.9998 0.9998 0.9998 0.9998 0.9998 0.9998 0.9998 0.9998 0.9998 
0.9998 0.9998 0.9998 0.9998 0.9998 0.9998 0.9998 0.9998 0.9998 0.9998 0.9998 0.9998 0.9998 0.9998 0.9998 0.9998 0.9998 0.9998 0.9998 0.9998 0.9998 
0.9998 0.9998 0.9998 0.9998 0.9998 0.9998 0.9998 0.9998 0.9998 0.9998 0.9998 0.9998 0.9998 0.9998 0.9998 0.9998 0.9998 0.9998 0.9998 0.9998 0.9998 
0.9998 0.9998 0.9998 0.9998 0.9998 0.9998 0.9998 0.9998 0.9998 0.9998 0.9998 0.9998 0.9998 0.9998 0.9998 0.9998 0.9998 0.9998 0.9998 0.9998 0.9998 
0.9998 0.9998 0.9998 0.9998 0.9998 0.9998 0.9998 0.9998 0.9998 0.9998 0.9998 0.9998 0.9998 0.9998 0.9998 0.9998 0.9998 0.9998 0.9998 0.9998 0.9998 
0.9998 0.9998 0.9998 0.9998 0.9998 0.9998 0.9998 0.9998 0.9998 0.9998 0.9998 0.9998 0.9998 0.9998 0.9998 0.9998 0.9998 0.9998 0.9998 0.9998 0.9998 
0.9998 0.9998 0.9998 0.9998 0.9998 0.9998 0.9998 0.9998 0.9998 0.9998 0.9998 0.9998 0.9998 0.9998 0.9998 0.9998 0.9998 0.9998 0.9998 0.9998 0.9998 
0.9998 0.9998 0.9998 0.9998 0.9998 0.9998 0.9998 0.9998 0.9998 0.9998 0.9998 0.9998 0.9998 0.9998 0.9998 0.9998 0.9998 0.9998 0.9998 0.9998 0.9998 
0.9998 0.9998 0.9998 0.9998 0.9998 0.9998 0.9998 0.9998 0.9998 0.9998 0.9998 0.9998 0.9998 0.9998 0.9998 0.9998 0.9998 0.9998 0.9998 0.9998 0.9998 
0.9998 0.9998 0.9998 0.9998 0.9998 0.9998 0.9998 0.9998 0.9998 0.9998 0.9998 0.9998 0.9998 0.9998 0.9998 0.9998 0.9998 0.9998 0.9998 0.9998 0.9998 
0.9998 0.9998 0.9998 0.9998 0.9998 0.9998 0.9998 0.9998 0.9998 0.9998 0.9998 0.9998 0.9998 0.9998 0.9998 0.9998 0.9998 0.9998 0.9998 0.9998 0.9998 
</DataArray>
</PointData>
</Piece>
</ImageData>
</VTKFile>
