<VTKFile type="ImageData">
<ImageData Origin="0 -10 0" Spacing="0.5 0.5 1" WholeExtent="0 20 0 40 0 0">
<Piece Extent="0 20 0 40 0 0">
<PointData>
<DataArray Name="f" NumberOfComponents="1" format="ascii" type="Float64">
2.378e-17 2.378e-17 2.378e-17 2.378e-17 2.378e-17 2.378e-17 2.378e-17 2.378e-17 2.378e-17 2.378e-17 2.378e-17 2.378e-17 2.378e-17 2.378e-17 2.378e-17 2.378e-17 2.378e-17 2.378e-17 2.378e-17 2.378e-17 2.378e-17 
1.205e-15 1.205e-15 1.205e-15 1.205e-15 1.205e-15 1.205e-15 1.205e-15 1.205e-15 1.205e-15 1.205e-15 1.205e-15 1.205e-15 1.205e-15 1.205e-15 1.205e-15 1.205e-15 1.205e-15 1.205e-15 1.205e-15 1.205e-15 1.205e-15 
4.819e-14 4.819e-14 4.819e-14 4.819e-14 4.819e-14 4.819e-14 4.819e-14 4.819e-14 4.819e-14 4.819e-14 4.819e-14 4.819e-14 4.819e-14 4.819e-14 4.819e-14 4.819e-14 4.819e-14 4.819e-14 4.819e-14 4.819e-14 4.819e-14 
1.524e-12 1.524e-12 1.524e-12 1.524e-12 1.524e-12 1.524e-12 1.524e-12 1.524e-12 1.524e-12 1.524e-12 1.524e-12 1.524e-12 1.524e-12 1.524e-12 1.524e-12 1.524e-12 1.524e-12 1.524e-12 1.524e-12 1.524e-12 1.524e-12 
3.828e-11 3.828e-11 3.828e-11 3.828e-11 3.828e-11 3.828e-11 3.828e-11 3.828e-11 3.828e-11 3.828e-11 3.828e-11 3.828e-11 3.828e-11 3.828e-11 3.828e-11 3.828e-11 3.828e-11 3.828e-11 3.828e-11 3.828e-11 3.828e-11 
7.657e-10 7.657e-10 7.657e-10 7.657e-10 7.657e-10 7.657e-10 7.657e-10 7.657e-10 7.657e-10 7.657e-10 7.657e-10 7.657e-10 7.657e-10 7.657e-10 7.657e-10 7.657e-10 7.657e-10 7.657e-10 7.657e-10 7.657e-10 7.657e-10 
1.225e-08 1.225e-08 1.225e-08 1.225e-08 1.225e-08 1.225e-08 1.225e-08 1.225e-08 1.225e-08 1.225e-08 1.225e-08 1.225e-08 1.225e-08 1.225e-08 1.225e-08 1.225e-08 1.225e-08 1.225e-08 1.225e-08 1.225e-08 1.225e-08 
1.575e-07 1.575e-07 1.575e-07 1.575e-07 1.575e-07 1.575e-07 1.575e-07 1.575e-07 1.575e-07 1.575e-07 1.575e-07 1.575e-07 1.575e-07 1.575e-07 1.575e-07 1.575e-07 1.575e-07 1.575e-07 1.575e-07 1.575e-07 1.575e-07 
1.633e-06 1.633e-06 1.633e-06 1.633e-06 1.633e-06 1.633e-06 1.633e-06 1.633e-06 1.633e-06 1.633e-06 1.633e-06 1.633e-06 1.633e-06 1.633e-06 1.633e-06 1.633e-06 1.633e-06 1.633e-06 1.633e-06 1.633e-06 1.633e-06 
1.372e-05 1.372e-05 1.372e-05 1.372e-05 1.372e-05 1.372e-05 1.372e-05 1.372e-05 1.372e-05 1.372e-05 1.372e-05 1.372e-05 1.372e-05 1.372e-05 1.372e-05 1.372e-05 1.372e-05 1.372e-05 1.372e-05 1.372e-05 1.372e-05 
9.366e-05 9.366e-05 9.366e-05 9.366e-05 9.366e-05 9.366e-05 9.366e-05 9.366e-05 9.366e-05 9.366e-05 9.366e-05 9.366e-05 9.366e-05 9.366e-05 9.366e-05 9.366e-05 9.366e-05 9.366e-05 9.366e-05 9.366e-05 9.366e-05 
0.0005218 0.0005218 0.0005218 0.0005218 0.0005218 0.0005218 0.0005218 0.0005218 0.0005218 0.0005218 0.0005218 0.0005218 0.0005218 0.0005218 0.0005218 0.0005218 0.0005218 0.0005218 0.0005218 0.0005218 0.0005218 
0.002378 0.002378 0.002378 0.002378 0.002378 0.002378 0.002378 0.002378 0.002378 0.002378 0.002378 0.002378 0.002378 0.002378 0.002378 0.002378 0.002378 0.002378 0.002378 0.002378 0.002378 
0.00888 0.00888 0.00888 0.00888 0.00888 0.00888 0.00888 0.00888 0.00888 0.00888 0.00888 0.00888 0.00888 0.00888 0.00888 0.00888 0.00888 0.00888 0.00888 0.00888 0.00888 
0.0272 0.0272 0.0272 0.0272 0.0272 0.0272 0.0272 0.0272 0.0272 0.0272 0.0272 0.0272 0.0272 0.0272 0.0272 0.0272 0.0272 0.0272 0.0272 0.0272 0.0272 
0.06836 0.06836 0.06836 0.06836 0.06836 0.06836 0.06836 0.06836 0.06836 0.06836 0.06836 0.06836 0.06836 0.06836 0.06836 0.06836 0.06836 0.06836 0.06836 0.06836 0.06836 
0.1408 0.1408 0.1408 0.1408 0.1408 0.1408 0.1408 0.1408 0.1408 0.1408 0.1408 0.1408 0.1408 0.1408 0.1408 0.1408 0.1408 0.1408 0.1408 0.1408 0.1408 
0.2374 0.2374 0.2374 0.2374 0.2374 0.2374 0.2374 0.2374 0.2374 0.2374 0.2374 0.2374 0.2374 0.2374 0.2374 0.2374 0.2374 0.2374 0.2374 0.2374 0.2374 
0.3267 0.3267 0.3267 0.3267 0.3267 0.3267 0.3267 0.3267 0.3267 0.3267 0.3267 0.3267 0.3267 0.3267 0.3267 0.3267 0.3267 0.3267 0.3267 0.3267 0.3267 
0.3658 0.3658 0.3658 0.3658 0.3658 0.3658 0.3658 0.3658 0.3658 0.3658 0.3658 0.3658 0.3658 0.3658 0.3658 0.3658 0.3658 0.3658 0.3658 0.3658 0.3658 
0.3321 0.3321 0.3321 0.3321 0.3321 0.3321 0.3321 0.3321 0.3321 0.3321 0.3321 0.3321 0.3321 0.3321 0.3321 0.3321 0.3321 0.3321 0.3321 0.3321 0.3321 
0.2434 0.2434 0.2434 0.2434 0.2434 0.2434 0.2434 0.2434 0.2434 0.2434 0.2434 0.2434 0.2434 0.2434 0.2434 0.2434 0.2434 0.2434 0.2434 0.2434 0.2434 
0.1434 0.1434 0.1434 0.1434 0.1434 0.1434 0.1434 0.1434 0.1434 0.1434 0.1434 0.1434 0.1434 0.1434 0.1434 0.1434 0.1434 0.1434 0.1434 0.1434 0.1434 
0.06767 0.06767 0.06767 0.06767 0.06767 0.06767 0.06767 0.06767 0.06767 0.06767 0.06767 0.06767 0.06767 0.06767 0.06767 0.06767 0.06767 0.06767 0.06767 0.06767 0.06767 
0.02545 0.02545 0.02545 0.02545 0.02545 0.02545 0.02545 0.02545 0.02545 0.02545 0.02545 0.02545 0.02545 0.02545 0.02545 0.02545 0.02545 0.02545 0.02545 0.02545 0.02545 
0.007606 0.007606 0.007606 0.007606 0.007606 0.007606 0.007606 0.007606 0.007606 0.007606 0.007606 0.007606 0.007606 0.007606 0.007606 0.007606 0.007606 0.007606 0.007606 0.007606 0.007606 
0.001799 0.001799 0.001799 0.001799 0.001799 0.001799 0.001799 0.001799 0.001799 0.001799 0.001799 0.001799 0.001799 0.001799 0.001799 0.001799 0.001799 0.001799 0.001799 0.001799 0.001799 
0.000336 0.000336 0.000336 0.000336 0.000336 0.000336 0.000336 0.000336 0.000336 0.000336 0.000336 0.000336 0.000336 0.000336 0.000336 0.000336 0.000336 0.000336 0.000336 0.000336 0.000336 
4.941e-05 4.941e-05 4.941e-05 4.941e-05 4.941e-05 4.941e-05 4.941e-05 4.941e-05 4.941e-05 4.941e-05 4.941e-05 4.941e-05 4.941e-05 4.941e-05 4.941e-05 4.941e-05 4.941e-05 4.941e-05 4.941e-05 4.941e-05 4.941e-05 
5.708e-06 5.708e-06 5.708e-06 5.708e-06 5.708e-06 5.708e-06 5.708e-06 5.708e-06 5.708e-06 5.708e-06 5.708e-06 5.708e-06 5.708e-06 5.708e-06 5.708e-06 5.708e-06 5.708e-06 5.708e-06 5.708e-06 5.708e-06 5.708e-06 
5.171e-07 5.171e-07 5.171e-07 5.171e-07 5.171e-07 5.171e-07 5.171e-07 5.171e-07 5.171e-07 5.171e-07 5.171e-07 5.171e-07 5.171e-07 5.171e-07 5.171e-07 5.171e-07 5.171e-07 5.171e-07 5.171e-07 5.171e-07 5.171e-07 
3.67e-08 3.67e-08 3.67e-08 3.67e-08 3.67e-08 3.67e-08 3.67e-08 3.67e-08 3.67e-08 3.67e-08 3.67e-08 3.67e-08 3.67e-08 3.67e-08 3.67e-08 3.67e-08 3.67e-08 3.67e-08 3.67e-08 3.67e-08 3.67e-08 
2.037e-09 2.037e-09 2.037e-09 2.037e-09 2.037e-09 2.037e-09 2.037e-09 2.037e-09 2.037e-09 2.037e-09 2.037e-09 2.037e-09 2.037e-09 2.037e-09 2.037e-09 2.037e-09 2.037e-09 2.037e-09 2.037e-09 2.037e-09 2.037e-09 
8.837e-11 8.837e-11 8.837e-11 8.837e-11 8.837e-11 8.837e-11 8.837e-11 8.837e-11 8.837e-11 8.837e-11 8.837e-11 8.837e-11 8.837e-11 8.837e-11 8.837e-11 8.837e-11 8.837e-11 8.837e-11 8.837e-11 8.837e-11 8.837e-11 
2.994e-12 2.994e-12 2.994e-12 2.994e-12 2.994e-12 2.994e-12 2.994e-12 2.994e-12 2.994e-12 2.994e-12 2.994e-12 2.994e-12 2.994e-12 2.994e-12 2.994e-12 2.994e-12 2.994e-12 2.994e-12 2.994e-12 2.994e-12 2.994e-12 
7.917e-14 7.917e-14 7.917e-14 7.917e-14 7.917e-14 7.917e-14 7.917e-14 7.917e-14 7.917e-14 7.917e-14 7.917e-14 7.917e-14 7.917e-14 7.917e-14 7.917e-14 7.917e-14 7.917e-14 7.917e-14 7.917e-14 7.917e-14 7.917e-14 
1.633e-15 1.633e-15 1.633e-15 1.633e-15 1.633e-15 1.633e-15 1.633e-15 1.633e-15 1.633e-15 1.633e-15 1.633e-15 1.633e-15 1.633e-15 1.633e-15 1.633e-15 1.633e-15 1.633e-15 1.633e-15 1.633e-15 1.633e-15 1.633e-15 
2.627e-17 2.627e-17 2.627e-17 2.627e-17 2.627e-17 2.627e-17 2.627e-17 2.627e-17 2.627e-17 2.627e-17 2.627e-17 2.627e-17 2.627e-17 2.627e-17 2.627e-17 2.627e-17 2.627e-17 2.627e-17 2.627e-17 2.627e-17 2.627e-17 
3.296e-19 3.296e-19 3.296e-19 3.296e-19 3.296e-19 3.296e-19 3.296e-19 3.296e-19 3.296e-19 3.296e-19 3.296e-19 3.296e-19 3.296e-19 3.296e-19 3.296e-19 3.296e-19 3.296e-19 3.296e-19 3.296e-19 3.296e-19 3.296e-19 
0 0 0 0 0 0 0 0 0 0 0 0 0 0 0 0 0 0 0 0 0 
3.694e-19 3.694e-19 3.694e-19 3.694e-19 3.694e-19 3.694e-19 3.694e-19 3.694e-19 3.694e-19 3.694e-19 3.694e-19 3.694e-19 3.694e-19 3.694e-19 3.694e-19 3.694e-19 3.694e-19 3.694e-19 3.694e-19 3.694e-19 3.694e-19 
</DataArray>
<DataArray Name="E" NumberOfComponents="1" format="ascii" type="Float64">
1 1 1 1 1 1 1 1 1 1 1 1 1 1 1 1 1 1 1 1 1 
1 1 1 1 1 1 1 1 1 1 1 1 1 1 1 1 1 1 1 1 1 
1 1 1 1 1 1 1 1 1 1 1 1 1 1 1 1 1 1 1 1 1 
1 1 1 1 1 1 1 1 1 1 1 1 1 1 1 1 1 1 1 1 1 
1 1 1 1 1 1 1 1 1 1 1 1 1 1 1 1 1 1 1 1 1 
1 1 1 1 1 1 1 1 1 1 1 1 1 1 1 1 1 1 1 1 1 
1 1 1 1 1 1 1 1 1 1 1 1 1 1 1 1 1 1 1 1 1 
1 1 1 1 1 1 1 1 1 1 1 1 1 1 1 1 1 1 1 1 1 
1 1 1 1 1 1 1 1 1 1 1 1 1 1 1 1 1 1 1 1 1 
1 1 1 1 1 1 1 1 1 1 1 1 1 1 1 1 1 1 1 1 1 
1 1 1 1 1 1 1 1 1 1 1 1 1 1 1 1 1 1 1 1 1 
1 1 1 1 1 1 1 1 1 1 1 1 1 1 1 1 1 1 1 1 1 
1 1 1 1 1 1 1 1 1 1 1 1 1 1 1 1 1 1 1 1 1 
1 1 1 1 1 1 1 1 1 1 1 1 1 1 1 1 1 1 1 1 1 
1 1 1 1 1 1 1 1 1 1 1 1 1 1 1 1 1 1 1 1 1 
1 1 1 1 1 1 1 1 1 1 1 1 1 1 1 1 1 1 1 1 1 
1 1 1 1 1 1 1 1 1 1 1 1 1 1 1 1 1 1 1 1 1 
1 1 1 1 1 1 1 1 1 1 1 1 1 1 1 1 1 1 1 1 1 
1 1 1 1 1 1 1 1 1 1 1 1 1 1 1 1 1 1 1 1 1 
1 1 1 1 1 1 1 1 1 1 1 1 1 1 1 1 1 1 1 1 1 
1 1 1 1 1 1 1 1 1 1 1 1 1 1 1 1 1 1 1 1 1 
1 1 1 1 1 1 1 1 1 1 1 1 1 1 1 1 1 1 1 1 1 
1 1 1 1 1 1 1 1 1 1 1 1 1 1 1 1 1 1 1 1 1 
1 1 1 1 1 1 1 1 1 1 1 1 1 1 1 1 1 1 1 1 1 
1 1 1 1 1 1 1 1 1 1 1 1 1 1 1 1 1 1 1 1 1 
1 1 1 1 1 1 1 1 1 1 1 1 1 1 1 1 1 1 1 1 1 
1 1 1 1 1 1 1 1 1 1 1 1 1 1 1 1 1 1 1 1 1 
1 1 1 1 1 1 1 1 1 1 1 1 1 1 1 1 1 1 1 1 1 
1 1 1 1 1 1 1 1 1 1 1 1 1 1 1 1 1 1 1 1 1 
1 1 1 1 1 1 1 1 1 1 1 1 1 1 1 1 1 1 1 1 1 
1 1 1 1 1 1 1 1 1 1 1 1 1 1 1 1 1 1 1 1 1 
1 1 1 1 1 1 1 1 1 1 1 1 1 1 1 1 1 1 1 1 1 
1 1 1 1 1 1 1 1 1 1 1 1 1 1 1 1 1 1 1 1 1 
1 1 1 1 1 1 1 1 1 1 1 1 1 1 1 1 1 1 1 1 1 
1 1 1 1 1 1 1 1 1 1 1 1 1 1 1 1 1 1 1 1 1 
1 1 1 1 1 1 1 1 1 1 1 1 1 1 1 1 1 1 1 1 1 
1 1 1 1 1 1 1 1 1 1 1 1 1 1 1 1 1 1 1 1 1 
1 1 1 1 1 1 1 1 1 1 1 1 1 1 1 1 1 1 1 1 1 
1 1 1 1 1 1 1 1 1 1 1 1 1 1 1 1 1 1 1 1 1 
1 1 1 1 1 1 1 1 1 1 1 1 1 1 1 1 1 1 1 1 1 
1 1 1 1 1 1 1 1 1 1 1 1 1 1 1 1 1 1 1 1 1 
</DataArray>
<DataArray Name="ne" NumberOfComponents="1" format="ascii" type="Float64">
1 1 1 1 1 1 1 1 1 1 1 1 1 1 1 1 1 1 1 1 1 
1 1 1 1 1 1 1 1 1 1 1 1 1 1 1 1 1 1 1 1 1 
1 1 1 1 1 1 1 1 1 1 1 1 1 1 1 1 1 1 1 1 1 
1 1 1 1 1 1 1 1 1 1 1 1 1 1 1 1 1 1 1 1 1 
1 1 1 1 1 1 1 1 1 1 1 1 1 1 1 1 1 1 1 1 1 
1 1 1 1 1 1 1 1 1 1 1 1 1 1 1 1 1 1 1 1 1 
1 1 1 1 1 1 1 1 1 1 1 1 1 1 1 1 1 1 1 1 1 
1 1 1 1 1 1 1 1 1 1 1 1 1 1 1 1 1 1 1 1 1 
1 1 1 1 1 1 1 1 1 1 1 1 1 1 1 1 1 1 1 1 1 
1 1 1 1 1 1 1 1 1 1 1 1 1 1 1 1 1 1 1 1 1 
1 1 1 1 1 1 1 1 1 1 1 1 1 1 1 1 1 1 1 1 1 
1 1 1 1 1 1 1 1 1 1 1 1 1 1 1 1 1 1 1 1 1 
1 1 1 1 1 1 1 1 1 1 1 1 1 1 1 1 1 1 1 1 1 
1 1 1 1 1 1 1 1 1 1 1 1 1 1 1 1 1 1 1 1 1 
1 1 1 1 1 1 1 1 1 1 1 1 1 1 1 1 1 1 1 1 1 
1 1 1 1 1 1 1 1 1 1 1 1 1 1 1 1 1 1 1 1 1 
1 1 1 1 1 1 1 1 1 1 1 1 1 1 1 1 1 1 1 1 1 
1 1 1 1 1 1 1 1 1 1 1 1 1 1 1 1 1 1 1 1 1 
1 1 1 1 1 1 1 1 1 1 1 1 1 1 1 1 1 1 1 1 1 
1 1 1 1 1 1 1 1 1 1 1 1 1 1 1 1 1 1 1 1 1 
1 1 1 1 1 1 1 1 1 1 1 1 1 1 1 1 1 1 1 1 1 
1 1 1 1 1 1 1 1 1 1 1 1 1 1 1 1 1 1 1 1 1 
1 1 1 1 1 1 1 1 1 1 1 1 1 1 1 1 1 1 1 1 1 
1 1 1 1 1 1 1 1 1 1 1 1 1 1 1 1 1 1 1 1 1 
1 1 1 1 1 1 1 1 1 1 1 1 1 1 1 1 1 1 1 1 1 
1 1 1 1 1 1 1 1 1 1 1 1 1 1 1 1 1 1 1 1 1 
1 1 1 1 1 1 1 1 1 1 1 1 1 1 1 1 1 1 1 1 1 
1 1 1 1 1 1 1 1 1 1 1 1 1 1 1 1 1 1 1 1 1 
1 1 1 1 1 1 1 1 1 1 1 1 1 1 1 1 1 1 1 1 1 
1 1 1 1 1 1 1 1 1 1 1 1 1 1 1 1 1 1 1 1 1 
1 1 1 1 1 1 1 1 1 1 1 1 1 1 1 1 1 1 1 1 1 
1 1 1 1 1 1 1 1 1 1 1 1 1 1 1 1 1 1 1 1 1 
1 1 1 1 1 1 1 1 1 1 1 1 1 1 1 1 1 1 1 1 1 
1 1 1 1 1 1 1 1 1 1 1 1 1 1 1 1 1 1 1 1 1 
1 1 1 1 1 1 1 1 1 1 1 1 1 1 1 1 1 1 1 1 1 
1 1 1 1 1 1 1 1 1 1 1 1 1 1 1 1 1 1 1 1 1 
1 1 1 1 1 1 1 1 1 1 1 1 1 1 1 1 1 1 1 1 1 
1 1 1 1 1 1 1 1 1 1 1 1 1 1 1 1 1 1 1 1 1 
1 1 1 1 1 1 1 1 1 1 1 1 1 1 1 1 1 1 1 1 1 
1 1 1 1 1 1 1 1 1 1 1 1 1 1 1 1 1 1 1 1 1 
1 1 1 1 1 1 1 1 1 1 1 1 1 1 1 1 1 1 1 1 1 
</DataArray>
</PointData>
</Piece>
</ImageData>
</VTKFile>
