<VTKFile type="ImageData">
<ImageData Origin="0 -10 0" Spacing="0.5 0.5 1" WholeExtent="0 20 0 40 0 0">
<Piece Extent="0 20 0 40 0 0">
<PointData>
<DataArray Name="f" NumberOfComponents="1" format="ascii" type="Float64">
0.01216 0.01216 0.01216 0.01216 0.01216 0.01216 0.01216 0.01216 0.01216 0.01216 0.01216 0.01216 0.01216 0.01216 0.01216 0.01216 0.01216 0.01216 0.01216 0.01216 0.01216 
0.007268 0.007268 0.007268 0.007268 0.007268 0.007268 0.007269 0.007269 0.007269 0.007269 0.007269 0.007269 0.007269 0.007269 0.007269 0.00727 0.00727 0.00727 0.007269 0.007269 0.007268 
0.004146 0.004146 0.004146 0.004146 0.004147 0.004147 0.004147 0.004147 0.004147 0.004147 0.004147 0.004147 0.004147 0.004147 0.004147 0.004147 0.004147 0.004147 0.004147 0.004147 0.004146 
0.002256 0.002256 0.002256 0.002256 0.002256 0.002257 0.002257 0.002257 0.002257 0.002257 0.002257 0.002257 0.002257 0.002257 0.002257 0.002257 0.002257 0.002257 0.002257 0.002257 0.002256 
0.001171 0.001171 0.001171 0.001171 0.001171 0.001171 0.001171 0.001171 0.001171 0.001171 0.001171 0.001171 0.001171 0.001171 0.001171 0.001171 0.001171 0.001171 0.001171 0.001171 0.001171 
0.0005791 0.0005792 0.0005792 0.0005792 0.0005792 0.0005792 0.0005792 0.0005792 0.0005793 0.0005793 0.0005793 0.0005793 0.0005793 0.0005793 0.0005793 0.0005793 0.0005793 0.0005793 0.0005793 0.0005793 0.0005791 
0.0002732 0.0002732 0.0002732 0.0002732 0.0002732 0.0002732 0.0002732 0.0002732 0.0002732 0.0002732 0.0002732 0.0002732 0.0002733 0.0002733 0.0002733 0.0002733 0.0002732 0.0002732 0.0002732 0.0002732 0.0002732 
0.0001234 0.0001234 0.0001234 0.0001234 0.0001234 0.0001234 0.0001234 0.0001234 0.0001234 0.0001234 0.0001234 0.0001234 0.0001234 0.0001234 0.0001234 0.0001234 0.0001234 0.0001234 0.0001234 0.0001234 0.0001234 
5.489e-05 5.489e-05 5.489e-05 5.489e-05 5.489e-05 5.489e-05 5.489e-05 5.49e-05 5.49e-05 5.49e-05 5.49e-05 5.49e-05 5.49e-05 5.49e-05 5.49e-05 5.49e-05 5.49e-05 5.49e-05 5.49e-05 5.49e-05 5.489e-05 
2.815e-05 2.815e-05 2.815e-05 2.815e-05 2.815e-05 2.815e-05 2.815e-05 2.815e-05 2.815e-05 2.815e-05 2.815e-05 2.815e-05 2.815e-05 2.815e-05 2.815e-05 2.815e-05 2.815e-05 2.815e-05 2.815e-05 2.815e-05 2.815e-05 
2.581e-05 2.581e-05 2.581e-05 2.581e-05 2.581e-05 2.581e-05 2.581e-05 2.581e-05 2.581e-05 2.581e-05 2.581e-05 2.581e-05 2.581e-05 2.581e-05 2.581e-05 2.581e-05 2.581e-05 2.581e-05 2.581e-05 2.581e-05 2.581e-05 
4.591e-05 4.591e-05 4.591e-05 4.591e-05 4.591e-05 4.591e-05 4.591e-05 4.591e-05 4.591e-05 4.59e-05 4.59e-05 4.59e-05 4.59e-05 4.59e-05 4.59e-05 4.59e-05 4.59e-05 4.59e-05 4.591e-05 4.591e-05 4.591e-05 
0.0001009 0.0001009 0.0001009 0.0001009 0.0001009 0.0001009 0.0001009 0.0001009 0.0001009 0.0001009 0.0001009 0.0001009 0.0001009 0.0001009 0.0001009 0.0001009 0.0001009 0.0001009 0.0001009 0.0001009 0.0001009 
0.0002221 0.0002221 0.0002221 0.0002221 0.0002221 0.0002221 0.0002221 0.0002221 0.0002221 0.0002221 0.0002221 0.0002221 0.0002221 0.0002221 0.0002221 0.0002221 0.0002221 0.0002221 0.0002221 0.0002221 0.0002221 
0.0004706 0.0004707 0.0004707 0.0004706 0.0004706 0.0004706 0.0004706 0.0004706 0.0004706 0.0004706 0.0004705 0.0004705 0.0004705 0.0004705 0.0004705 0.0004705 0.0004705 0.0004705 0.0004705 0.0004706 0.0004706 
0.0009535 0.0009535 0.0009535 0.0009535 0.0009534 0.0009534 0.0009534 0.0009534 0.0009533 0.0009533 0.0009533 0.0009533 0.0009532 0.0009532 0.0009532 0.0009532 0.0009532 0.0009532 0.0009532 0.0009533 0.0009535 
0.001846 0.001846 0.001846 0.001846 0.001846 0.001845 0.001845 0.001845 0.001845 0.001845 0.001845 0.001845 0.001845 0.001845 0.001845 0.001845 0.001845 0.001845 0.001845 0.001845 0.001846 
0.003413 0.003414 0.003414 0.003413 0.003413 0.003413 0.003413 0.003413 0.003413 0.003413 0.003413 0.003413 0.003413 0.003413 0.003413 0.003413 0.003413 0.003413 0.003413 0.003413 0.003413 
0.006033 0.006034 0.006033 0.006033 0.006033 0.006033 0.006033 0.006033 0.006033 0.006032 0.006032 0.006032 0.006032 0.006032 0.006032 0.006032 0.006032 0.006032 0.006032 0.006032 0.006033 
0.01019 0.01019 0.01019 0.01019 0.01019 0.01019 0.01019 0.01019 0.01019 0.01019 0.01019 0.01019 0.01019 0.01019 0.01019 0.01019 0.01019 0.01019 0.01019 0.01019 0.01019 
0.01646 0.01646 0.01646 0.01646 0.01646 0.01646 0.01646 0.01646 0.01646 0.01646 0.01646 0.01646 0.01646 0.01646 0.01646 0.01646 0.01645 0.01645 0.01645 0.01646 0.01646 
0.02541 0.02541 0.02541 0.02541 0.02541 0.02541 0.02541 0.02541 0.02541 0.02541 0.02541 0.02541 0.0254 0.0254 0.0254 0.0254 0.0254 0.0254 0.0254 0.0254 0.02541 
0.0375 0.0375 0.0375 0.0375 0.0375 0.0375 0.0375 0.0375 0.0375 0.0375 0.0375 0.0375 0.0375 0.0375 0.0375 0.0375 0.0375 0.0375 0.0375 0.0375 0.0375 
0.05293 0.05293 0.05293 0.05293 0.05293 0.05293 0.05293 0.05293 0.05293 0.05293 0.05293 0.05293 0.05292 0.05292 0.05292 0.05292 0.05292 0.05292 0.05292 0.05292 0.05293 
0.07143 0.07143 0.07143 0.07143 0.07143 0.07143 0.07143 0.07143 0.07143 0.07143 0.07143 0.07143 0.07143 0.07143 0.07143 0.07143 0.07142 0.07142 0.07142 0.07142 0.07143 
0.09218 0.09219 0.09219 0.09219 0.09219 0.09219 0.09219 0.09219 0.09219 0.09219 0.09219 0.09218 0.09218 0.09218 0.09218 0.09218 0.09218 0.09218 0.09218 0.09218 0.09218 
0.1138 0.1138 0.1138 0.1138 0.1138 0.1138 0.1138 0.1138 0.1138 0.1138 0.1138 0.1138 0.1138 0.1138 0.1138 0.1138 0.1138 0.1138 0.1138 0.1138 0.1138 
0.1343 0.1343 0.1343 0.1343 0.1343 0.1343 0.1343 0.1343 0.1343 0.1343 0.1343 0.1343 0.1343 0.1343 0.1343 0.1343 0.1343 0.1343 0.1343 0.1343 0.1343 
0.1516 0.1516 0.1516 0.1516 0.1516 0.1516 0.1516 0.1516 0.1516 0.1516 0.1516 0.1516 0.1516 0.1516 0.1516 0.1516 0.1516 0.1516 0.1516 0.1516 0.1516 
0.1636 0.1636 0.1636 0.1636 0.1636 0.1636 0.1636 0.1636 0.1636 0.1636 0.1636 0.1636 0.1636 0.1636 0.1636 0.1636 0.1636 0.1636 0.1636 0.1636 0.1636 
0.1689 0.1689 0.1689 0.1689 0.1689 0.1689 0.1689 0.1689 0.1689 0.1689 0.1689 0.1689 0.1689 0.1689 0.1689 0.1689 0.1689 0.1689 0.1689 0.1689 0.1689 
0.1667 0.1667 0.1667 0.1667 0.1667 0.1667 0.1667 0.1667 0.1667 0.1667 0.1667 0.1667 0.1667 0.1667 0.1667 0.1667 0.1667 0.1667 0.1667 0.1667 0.1667 
0.1573 0.1573 0.1573 0.1573 0.1573 0.1573 0.1573 0.1573 0.1573 0.1573 0.1573 0.1573 0.1573 0.1573 0.1573 0.1573 0.1573 0.1573 0.1573 0.1573 0.1573 
0.1419 0.1419 0.1419 0.1419 0.1419 0.1419 0.1419 0.1419 0.1419 0.1419 0.1419 0.1419 0.1419 0.1419 0.1419 0.1419 0.1419 0.1419 0.1419 0.1419 0.1419 
0.1224 0.1224 0.1224 0.1224 0.1224 0.1224 0.1224 0.1224 0.1224 0.1224 0.1224 0.1224 0.1224 0.1224 0.1224 0.1224 0.1224 0.1224 0.1224 0.1224 0.1224 
0.1009 0.1009 0.1009 0.1009 0.1009 0.1009 0.1009 0.1009 0.1009 0.1009 0.1009 0.1009 0.1009 0.1009 0.1009 0.1009 0.1009 0.1009 0.1009 0.1009 0.1009 
0.07951 0.07951 0.07951 0.07951 0.07951 0.07951 0.07951 0.07951 0.07951 0.07951 0.07951 0.07951 0.07951 0.07951 0.07951 0.07951 0.07951 0.07951 0.07951 0.07951 0.07951 
0.05987 0.05986 0.05986 0.05986 0.05986 0.05986 0.05986 0.05986 0.05986 0.05986 0.05986 0.05986 0.05986 0.05986 0.05986 0.05986 0.05986 0.05986 0.05986 0.05986 0.05987 
0.04306 0.04306 0.04306 0.04306 0.04306 0.04305 0.04305 0.04305 0.04305 0.04306 0.04306 0.04306 0.04306 0.04306 0.04306 0.04306 0.04306 0.04306 0.04306 0.04306 0.04306 
0.02958 0.02958 0.02958 0.02958 0.02958 0.02958 0.02958 0.02958 0.02958 0.02958 0.02958 0.02958 0.02958 0.02958 0.02958 0.02958 0.02958 0.02958 0.02958 0.02958 0.02958 
0.01941 0.01941 0.01941 0.01941 0.01941 0.01941 0.01941 0.01941 0.01941 0.01941 0.01941 0.01941 0.01941 0.01941 0.01941 0.01941 0.01941 0.01941 0.01941 0.01941 0.01941 
</DataArray>
<DataArray Name="E" NumberOfComponents="1" format="ascii" type="Float64">
-4.602 -4.603 -4.603 -4.603 -4.603 -4.603 -4.603 -4.603 -4.603 -4.603 -4.603 -4.603 -4.603 -4.603 -4.603 -4.603 -4.603 -4.603 -4.603 -4.603 -4.604 
-4.602 -4.603 -4.603 -4.603 -4.603 -4.603 -4.603 -4.603 -4.603 -4.603 -4.603 -4.603 -4.603 -4.603 -4.603 -4.603 -4.603 -4.603 -4.603 -4.603 -4.604 
-4.602 -4.603 -4.603 -4.603 -4.603 -4.603 -4.603 -4.603 -4.603 -4.603 -4.603 -4.603 -4.603 -4.603 -4.603 -4.603 -4.603 -4.603 -4.603 -4.603 -4.604 
-4.602 -4.603 -4.603 -4.603 -4.603 -4.603 -4.603 -4.603 -4.603 -4.603 -4.603 -4.603 -4.603 -4.603 -4.603 -4.603 -4.603 -4.603 -4.603 -4.603 -4.604 
-4.602 -4.603 -4.603 -4.603 -4.603 -4.603 -4.603 -4.603 -4.603 -4.603 -4.603 -4.603 -4.603 -4.603 -4.603 -4.603 -4.603 -4.603 -4.603 -4.603 -4.604 
-4.602 -4.603 -4.603 -4.603 -4.603 -4.603 -4.603 -4.603 -4.603 -4.603 -4.603 -4.603 -4.603 -4.603 -4.603 -4.603 -4.603 -4.603 -4.603 -4.603 -4.604 
-4.602 -4.603 -4.603 -4.603 -4.603 -4.603 -4.603 -4.603 -4.603 -4.603 -4.603 -4.603 -4.603 -4.603 -4.603 -4.603 -4.603 -4.603 -4.603 -4.603 -4.604 
-4.602 -4.603 -4.603 -4.603 -4.603 -4.603 -4.603 -4.603 -4.603 -4.603 -4.603 -4.603 -4.603 -4.603 -4.603 -4.603 -4.603 -4.603 -4.603 -4.603 -4.604 
-4.602 -4.603 -4.603 -4.603 -4.603 -4.603 -4.603 -4.603 -4.603 -4.603 -4.603 -4.603 -4.603 -4.603 -4.603 -4.603 -4.603 -4.603 -4.603 -4.603 -4.604 
-4.602 -4.603 -4.603 -4.603 -4.603 -4.603 -4.603 -4.603 -4.603 -4.603 -4.603 -4.603 -4.603 -4.603 -4.603 -4.603 -4.603 -4.603 -4.603 -4.603 -4.604 
-4.602 -4.603 -4.603 -4.603 -4.603 -4.603 -4.603 -4.603 -4.603 -4.603 -4.603 -4.603 -4.603 -4.603 -4.603 -4.603 -4.603 -4.603 -4.603 -4.603 -4.604 
-4.602 -4.603 -4.603 -4.603 -4.603 -4.603 -4.603 -4.603 -4.603 -4.603 -4.603 -4.603 -4.603 -4.603 -4.603 -4.603 -4.603 -4.603 -4.603 -4.603 -4.604 
-4.602 -4.603 -4.603 -4.603 -4.603 -4.603 -4.603 -4.603 -4.603 -4.603 -4.603 -4.603 -4.603 -4.603 -4.603 -4.603 -4.603 -4.603 -4.603 -4.603 -4.604 
-4.602 -4.603 -4.603 -4.603 -4.603 -4.603 -4.603 -4.603 -4.603 -4.603 -4.603 -4.603 -4.603 -4.603 -4.603 -4.603 -4.603 -4.603 -4.603 -4.603 -4.604 
-4.602 -4.603 -4.603 -4.603 -4.603 -4.603 -4.603 -4.603 -4.603 -4.603 -4.603 -4.603 -4.603 -4.603 -4.603 -4.603 -4.603 -4.603 -4.603 -4.603 -4.604 
-4.602 -4.603 -4.603 -4.603 -4.603 -4.603 -4.603 -4.603 -4.603 -4.603 -4.603 -4.603 -4.603 -4.603 -4.603 -4.603 -4.603 -4.603 -4.603 -4.603 -4.604 
-4.602 -4.603 -4.603 -4.603 -4.603 -4.603 -4.603 -4.603 -4.603 -4.603 -4.603 -4.603 -4.603 -4.603 -4.603 -4.603 -4.603 -4.603 -4.603 -4.603 -4.604 
-4.602 -4.603 -4.603 -4.603 -4.603 -4.603 -4.603 -4.603 -4.603 -4.603 -4.603 -4.603 -4.603 -4.603 -4.603 -4.603 -4.603 -4.603 -4.603 -4.603 -4.604 
-4.602 -4.603 -4.603 -4.603 -4.603 -4.603 -4.603 -4.603 -4.603 -4.603 -4.603 -4.603 -4.603 -4.603 -4.603 -4.603 -4.603 -4.603 -4.603 -4.603 -4.604 
-4.602 -4.603 -4.603 -4.603 -4.603 -4.603 -4.603 -4.603 -4.603 -4.603 -4.603 -4.603 -4.603 -4.603 -4.603 -4.603 -4.603 -4.603 -4.603 -4.603 -4.604 
-4.602 -4.603 -4.603 -4.603 -4.603 -4.603 -4.603 -4.603 -4.603 -4.603 -4.603 -4.603 -4.603 -4.603 -4.603 -4.603 -4.603 -4.603 -4.603 -4.603 -4.604 
-4.602 -4.603 -4.603 -4.603 -4.603 -4.603 -4.603 -4.603 -4.603 -4.603 -4.603 -4.603 -4.603 -4.603 -4.603 -4.603 -4.603 -4.603 -4.603 -4.603 -4.604 
-4.602 -4.603 -4.603 -4.603 -4.603 -4.603 -4.603 -4.603 -4.603 -4.603 -4.603 -4.603 -4.603 -4.603 -4.603 -4.603 -4.603 -4.603 -4.603 -4.603 -4.604 
-4.602 -4.603 -4.603 -4.603 -4.603 -4.603 -4.603 -4.603 -4.603 -4.603 -4.603 -4.603 -4.603 -4.603 -4.603 -4.603 -4.603 -4.603 -4.603 -4.603 -4.604 
-4.602 -4.603 -4.603 -4.603 -4.603 -4.603 -4.603 -4.603 -4.603 -4.603 -4.603 -4.603 -4.603 -4.603 -4.603 -4.603 -4.603 -4.603 -4.603 -4.603 -4.604 
-4.602 -4.603 -4.603 -4.603 -4.603 -4.603 -4.603 -4.603 -4.603 -4.603 -4.603 -4.603 -4.603 -4.603 -4.603 -4.603 -4.603 -4.603 -4.603 -4.603 -4.604 
-4.602 -4.603 -4.603 -4.603 -4.603 -4.603 -4.603 -4.603 -4.603 -4.603 -4.603 -4.603 -4.603 -4.603 -4.603 -4.603 -4.603 -4.603 -4.603 -4.603 -4.604 
-4.602 -4.603 -4.603 -4.603 -4.603 -4.603 -4.603 -4.603 -4.603 -4.603 -4.603 -4.603 -4.603 -4.603 -4.603 -4.603 -4.603 -4.603 -4.603 -4.603 -4.604 
-4.602 -4.603 -4.603 -4.603 -4.603 -4.603 -4.603 -4.603 -4.603 -4.603 -4.603 -4.603 -4.603 -4.603 -4.603 -4.603 -4.603 -4.603 -4.603 -4.603 -4.604 
-4.602 -4.603 -4.603 -4.603 -4.603 -4.603 -4.603 -4.603 -4.603 -4.603 -4.603 -4.603 -4.603 -4.603 -4.603 -4.603 -4.603 -4.603 -4.603 -4.603 -4.604 
-4.602 -4.603 -4.603 -4.603 -4.603 -4.603 -4.603 -4.603 -4.603 -4.603 -4.603 -4.603 -4.603 -4.603 -4.603 -4.603 -4.603 -4.603 -4.603 -4.603 -4.604 
-4.602 -4.603 -4.603 -4.603 -4.603 -4.603 -4.603 -4.603 -4.603 -4.603 -4.603 -4.603 -4.603 -4.603 -4.603 -4.603 -4.603 -4.603 -4.603 -4.603 -4.604 
-4.602 -4.603 -4.603 -4.603 -4.603 -4.603 -4.603 -4.603 -4.603 -4.603 -4.603 -4.603 -4.603 -4.603 -4.603 -4.603 -4.603 -4.603 -4.603 -4.603 -4.604 
-4.602 -4.603 -4.603 -4.603 -4.603 -4.603 -4.603 -4.603 -4.603 -4.603 -4.603 -4.603 -4.603 -4.603 -4.603 -4.603 -4.603 -4.603 -4.603 -4.603 -4.604 
-4.602 -4.603 -4.603 -4.603 -4.603 -4.603 -4.603 -4.603 -4.603 -4.603 -4.603 -4.603 -4.603 -4.603 -4.603 -4.603 -4.603 -4.603 -4.603 -4.603 -4.604 
-4.602 -4.603 -4.603 -4.603 -4.603 -4.603 -4.603 -4.603 -4.603 -4.603 -4.603 -4.603 -4.603 -4.603 -4.603 -4.603 -4.603 -4.603 -4.603 -4.603 -4.604 
-4.602 -4.603 -4.603 -4.603 -4.603 -4.603 -4.603 -4.603 -4.603 -4.603 -4.603 -4.603 -4.603 -4.603 -4.603 -4.603 -4.603 -4.603 -4.603 -4.603 -4.604 
-4.602 -4.603 -4.603 -4.603 -4.603 -4.603 -4.603 -4.603 -4.603 -4.603 -4.603 -4.603 -4.603 -4.603 -4.603 -4.603 -4.603 -4.603 -4.603 -4.603 -4.604 
-4.602 -4.603 -4.603 -4.603 -4.603 -4.603 -4.603 -4.603 -4.603 -4.603 -4.603 -4.603 -4.603 -4.603 -4.603 -4.603 -4.603 -4.603 -4.603 -4.603 -4.604 
-4.602 -4.603 -4.603 -4.603 -4.603 -4.603 -4.603 -4.603 -4.603 -4.603 -4.603 -4.603 -4.603 -4.603 -4.603 -4.603 -4.603 -4.603 -4.603 -4.603 -4.604 
-4.602 -4.603 -4.603 -4.603 -4.603 -4.603 -4.603 -4.603 -4.603 -4.603 -4.603 -4.603 -4.603 -4.603 -4.603 -4.603 -4.603 -4.603 -4.603 -4.603 -4.604 
</DataArray>
<DataArray Name="ne" NumberOfComponents="1" format="ascii" type="Float64">
0.9956 0.9956 0.9956 0.9956 0.9956 0.9956 0.9956 0.9956 0.9956 0.9956 0.9956 0.9956 0.9956 0.9956 0.9956 0.9956 0.9956 0.9956 0.9956 0.9956 0.9956 
0.9956 0.9956 0.9956 0.9956 0.9956 0.9956 0.9956 0.9956 0.9956 0.9956 0.9956 0.9956 0.9956 0.9956 0.9956 0.9956 0.9956 0.9956 0.9956 0.9956 0.9956 
0.9956 0.9956 0.9956 0.9956 0.9956 0.9956 0.9956 0.9956 0.9956 0.9956 0.9956 0.9956 0.9956 0.9956 0.9956 0.9956 0.9956 0.9956 0.9956 0.9956 0.9956 
0.9956 0.9956 0.9956 0.9956 0.9956 0.9956 0.9956 0.9956 0.9956 0.9956 0.9956 0.9956 0.9956 0.9956 0.9956 0.9956 0.9956 0.9956 0.9956 0.9956 0.9956 
0.9956 0.9956 0.9956 0.9956 0.9956 0.9956 0.9956 0.9956 0.9956 0.9956 0.9956 0.9956 0.9956 0.9956 0.9956 0.9956 0.9956 0.9956 0.9956 0.9956 0.9956 
0.9956 0.9956 0.9956 0.9956 0.9956 0.9956 0.9956 0.9956 0.9956 0.9956 0.9956 0.9956 0.9956 0.9956 0.9956 0.9956 0.9956 0.9956 0.9956 0.9956 0.9956 
0.9956 0.9956 0.9956 0.9956 0.9956 0.9956 0.9956 0.9956 0.9956 0.9956 0.9956 0.9956 0.9956 0.9956 0.9956 0.9956 0.9956 0.9956 0.9956 0.9956 0.9956 
0.9956 0.9956 0.9956 0.9956 0.9956 0.9956 0.9956 0.9956 0.9956 0.9956 0.9956 0.9956 0.9956 0.9956 0.9956 0.9956 0.9956 0.9956 0.9956 0.9956 0.9956 
0.9956 0.9956 0.9956 0.9956 0.9956 0.9956 0.9956 0.9956 0.9956 0.9956 0.9956 0.9956 0.9956 0.9956 0.9956 0.9956 0.9956 0.9956 0.9956 0.9956 0.9956 
0.9956 0.9956 0.9956 0.9956 0.9956 0.9956 0.9956 0.9956 0.9956 0.9956 0.9956 0.9956 0.9956 0.9956 0.9956 0.9956 0.9956 0.9956 0.9956 0.9956 0.9956 
0.9956 0.9956 0.9956 0.9956 0.9956 0.9956 0.9956 0.9956 0.9956 0.9956 0.9956 0.9956 0.9956 0.9956 0.9956 0.9956 0.9956 0.9956 0.9956 0.9956 0.9956 
0.9956 0.9956 0.9956 0.9956 0.9956 0.9956 0.9956 0.9956 0.9956 0.9956 0.9956 0.9956 0.9956 0.9956 0.9956 0.9956 0.9956 0.9956 0.9956 0.9956 0.9956 
0.9956 0.9956 0.9956 0.9956 0.9956 0.9956 0.9956 0.9956 0.9956 0.9956 0.9956 0.9956 0.9956 0.9956 0.9956 0.9956 0.9956 0.9956 0.9956 0.9956 0.9956 
0.9956 0.9956 0.9956 0.9956 0.9956 0.9956 0.9956 0.9956 0.9956 0.9956 0.9956 0.9956 0.9956 0.9956 0.9956 0.9956 0.9956 0.9956 0.9956 0.9956 0.9956 
0.9956 0.9956 0.9956 0.9956 0.9956 0.9956 0.9956 0.9956 0.9956 0.9956 0.9956 0.9956 0.9956 0.9956 0.9956 0.9956 0.9956 0.9956 0.9956 0.9956 0.9956 
0.9956 0.9956 0.9956 0.9956 0.9956 0.9956 0.9956 0.9956 0.9956 0.9956 0.9956 0.9956 0.9956 0.9956 0.9956 0.9956 0.9956 0.9956 0.9956 0.9956 0.9956 
0.9956 0.9956 0.9956 0.9956 0.9956 0.9956 0.9956 0.9956 0.9956 0.9956 0.9956 0.9956 0.9956 0.9956 0.9956 0.9956 0.9956 0.9956 0.9956 0.9956 0.9956 
0.9956 0.9956 0.9956 0.9956 0.9956 0.9956 0.9956 0.9956 0.9956 0.9956 0.9956 0.9956 0.9956 0.9956 0.9956 0.9956 0.9956 0.9956 0.9956 0.9956 0.9956 
0.9956 0.9956 0.9956 0.9956 0.9956 0.9956 0.9956 0.9956 0.9956 0.9956 0.9956 0.9956 0.9956 0.9956 0.9956 0.9956 0.9956 0.9956 0.9956 0.9956 0.9956 
0.9956 0.9956 0.9956 0.9956 0.9956 0.9956 0.9956 0.9956 0.9956 0.9956 0.9956 0.9956 0.9956 0.9956 0.9956 0.9956 0.9956 0.9956 0.9956 0.9956 0.9956 
0.9956 0.9956 0.9956 0.9956 0.9956 0.9956 0.9956 0.9956 0.9956 0.9956 0.9956 0.9956 0.9956 0.9956 0.9956 0.9956 0.9956 0.9956 0.9956 0.9956 0.9956 
0.9956 0.9956 0.9956 0.9956 0.9956 0.9956 0.9956 0.9956 0.9956 0.9956 0.9956 0.9956 0.9956 0.9956 0.9956 0.9956 0.9956 0.9956 0.9956 0.9956 0.9956 
0.9956 0.9956 0.9956 0.9956 0.9956 0.9956 0.9956 0.9956 0.9956 0.9956 0.9956 0.9956 0.9956 0.9956 0.9956 0.9956 0.9956 0.9956 0.9956 0.9956 0.9956 
0.9956 0.9956 0.9956 0.9956 0.9956 0.9956 0.9956 0.9956 0.9956 0.9956 0.9956 0.9956 0.9956 0.9956 0.9956 0.9956 0.9956 0.9956 0.9956 0.9956 0.9956 
0.9956 0.9956 0.9956 0.9956 0.9956 0.9956 0.9956 0.9956 0.9956 0.9956 0.9956 0.9956 0.9956 0.9956 0.9956 0.9956 0.9956 0.9956 0.9956 0.9956 0.9956 
0.9956 0.9956 0.9956 0.9956 0.9956 0.9956 0.9956 0.9956 0.9956 0.9956 0.9956 0.9956 0.9956 0.9956 0.9956 0.9956 0.9956 0.9956 0.9956 0.9956 0.9956 
0.9956 0.9956 0.9956 0.9956 0.9956 0.9956 0.9956 0.9956 0.9956 0.9956 0.9956 0.9956 0.9956 0.9956 0.9956 0.9956 0.9956 0.9956 0.9956 0.9956 0.9956 
0.9956 0.9956 0.9956 0.9956 0.9956 0.9956 0.9956 0.9956 0.9956 0.9956 0.9956 0.9956 0.9956 0.9956 0.9956 0.9956 0.9956 0.9956 0.9956 0.9956 0.9956 
0.9956 0.9956 0.9956 0.9956 0.9956 0.9956 0.9956 0.9956 0.9956 0.9956 0.9956 0.9956 0.9956 0.9956 0.9956 0.9956 0.9956 0.9956 0.9956 0.9956 0.9956 
0.9956 0.9956 0.9956 0.9956 0.9956 0.9956 0.9956 0.9956 0.9956 0.9956 0.9956 0.9956 0.9956 0.9956 0.9956 0.9956 0.9956 0.9956 0.9956 0.9956 0.9956 
0.9956 0.9956 0.9956 0.9956 0.9956 0.9956 0.9956 0.9956 0.9956 0.9956 0.9956 0.9956 0.9956 0.9956 0.9956 0.9956 0.9956 0.9956 0.9956 0.9956 0.9956 
0.9956 0.9956 0.9956 0.9956 0.9956 0.9956 0.9956 0.9956 0.9956 0.9956 0.9956 0.9956 0.9956 0.9956 0.9956 0.9956 0.9956 0.9956 0.9956 0.9956 0.9956 
0.9956 0.9956 0.9956 0.9956 0.9956 0.9956 0.9956 0.9956 0.9956 0.9956 0.9956 0.9956 0.9956 0.9956 0.9956 0.9956 0.9956 0.9956 0.9956 0.9956 0.9956 
0.9956 0.9956 0.9956 0.9956 0.9956 0.9956 0.9956 0.9956 0.9956 0.9956 0.9956 0.9956 0.9956 0.9956 0.9956 0.9956 0.9956 0.9956 0.9956 0.9956 0.9956 
0.9956 0.9956 0.9956 0.9956 0.9956 0.9956 0.9956 0.9956 0.9956 0.9956 0.9956 0.9956 0.9956 0.9956 0.9956 0.9956 0.9956 0.9956 0.9956 0.9956 0.9956 
0.9956 0.9956 0.9956 0.9956 0.9956 0.9956 0.9956 0.9956 0.9956 0.9956 0.9956 0.9956 0.9956 0.9956 0.9956 0.9956 0.9956 0.9956 0.9956 0.9956 0.9956 
0.9956 0.9956 0.9956 0.9956 0.9956 0.9956 0.9956 0.9956 0.9956 0.9956 0.9956 0.9956 0.9956 0.9956 0.9956 0.9956 0.9956 0.9956 0.9956 0.9956 0.9956 
0.9956 0.9956 0.9956 0.9956 0.9956 0.9956 0.9956 0.9956 0.9956 0.9956 0.9956 0.9956 0.9956 0.9956 0.9956 0.9956 0.9956 0.9956 0.9956 0.9956 0.9956 
0.9956 0.9956 0.9956 0.9956 0.9956 0.9956 0.9956 0.9956 0.9956 0.9956 0.9956 0.9956 0.9956 0.9956 0.9956 0.9956 0.9956 0.9956 0.9956 0.9956 0.9956 
0.9956 0.9956 0.9956 0.9956 0.9956 0.9956 0.9956 0.9956 0.9956 0.9956 0.9956 0.9956 0.9956 0.9956 0.9956 0.9956 0.9956 0.9956 0.9956 0.9956 0.9956 
0.9956 0.9956 0.9956 0.9956 0.9956 0.9956 0.9956 0.9956 0.9956 0.9956 0.9956 0.9956 0.9956 0.9956 0.9956 0.9956 0.9956 0.9956 0.9956 0.9956 0.9956 
</DataArray>
</PointData>
</Piece>
</ImageData>
</VTKFile>
