<VTKFile type="ImageData">
<ImageData Origin="0 -10 0" Spacing="0.5 0.5 1" WholeExtent="0 20 0 40 0 0">
<Piece Extent="0 20 0 40 0 0">
<PointData>
<DataArray Name="f" NumberOfComponents="1" format="ascii" type="Float64">
0.03293 0.03295 0.03295 0.03295 0.03294 0.03294 0.03293 0.03293 0.03292 0.03292 0.03291 0.03291 0.0329 0.0329 0.03289 0.03288 0.03288 0.03287 0.03287 0.03288 0.03293 
0.04693 0.04695 0.04695 0.04695 0.04695 0.04694 0.04694 0.04693 0.04692 0.04692 0.04691 0.0469 0.0469 0.04689 0.04688 0.04687 0.04687 0.04686 0.04685 0.04686 0.04693 
0.06402 0.06405 0.06405 0.06405 0.06405 0.06405 0.06404 0.06403 0.06402 0.06401 0.064 0.064 0.06399 0.06398 0.06397 0.06396 0.06395 0.06394 0.06394 0.06394 0.06402 
0.08361 0.08365 0.08365 0.08366 0.08365 0.08365 0.08364 0.08363 0.08362 0.08361 0.08361 0.0836 0.08359 0.08358 0.08357 0.08356 0.08355 0.08354 0.08353 0.08352 0.08361 
0.1046 0.1046 0.1046 0.1046 0.1046 0.1046 0.1046 0.1046 0.1046 0.1046 0.1046 0.1045 0.1045 0.1045 0.1045 0.1045 0.1045 0.1045 0.1045 0.1045 0.1046 
0.1252 0.1252 0.1252 0.1252 0.1252 0.1252 0.1252 0.1252 0.1252 0.1252 0.1252 0.1252 0.1252 0.1252 0.1251 0.1251 0.1251 0.1251 0.1251 0.1251 0.1252 
0.1435 0.1435 0.1435 0.1435 0.1435 0.1435 0.1435 0.1435 0.1435 0.1435 0.1435 0.1435 0.1435 0.1435 0.1435 0.1434 0.1434 0.1434 0.1434 0.1434 0.1435 
0.1575 0.1575 0.1575 0.1575 0.1575 0.1575 0.1575 0.1575 0.1575 0.1575 0.1575 0.1575 0.1575 0.1575 0.1574 0.1574 0.1574 0.1574 0.1574 0.1574 0.1575 
0.1654 0.1654 0.1655 0.1655 0.1655 0.1655 0.1655 0.1654 0.1654 0.1654 0.1654 0.1654 0.1654 0.1654 0.1654 0.1654 0.1654 0.1654 0.1654 0.1654 0.1654 
0.1664 0.1664 0.1664 0.1664 0.1664 0.1664 0.1664 0.1664 0.1664 0.1664 0.1664 0.1664 0.1664 0.1664 0.1664 0.1664 0.1664 0.1664 0.1664 0.1664 0.1664 
0.1602 0.1602 0.1602 0.1602 0.1602 0.1602 0.1602 0.1602 0.1602 0.1602 0.1602 0.1602 0.1602 0.1602 0.1602 0.1602 0.1602 0.1602 0.1602 0.1602 0.1602 
0.1476 0.1476 0.1476 0.1476 0.1476 0.1476 0.1476 0.1476 0.1476 0.1476 0.1476 0.1477 0.1477 0.1477 0.1477 0.1477 0.1477 0.1477 0.1477 0.1477 0.1476 
0.1302 0.1302 0.1302 0.1302 0.1302 0.1302 0.1302 0.1302 0.1302 0.1302 0.1302 0.1302 0.1302 0.1303 0.1303 0.1303 0.1303 0.1303 0.1303 0.1303 0.1302 
0.1099 0.1099 0.1099 0.1099 0.1099 0.1099 0.1099 0.1099 0.1099 0.1099 0.1099 0.1099 0.1099 0.11 0.11 0.11 0.11 0.11 0.11 0.11 0.1099 
0.08875 0.08872 0.08873 0.08873 0.08874 0.08874 0.08875 0.08876 0.08877 0.08878 0.08879 0.08879 0.0888 0.08881 0.08882 0.08883 0.08884 0.08885 0.08885 0.08883 0.08875 
0.06857 0.06854 0.06855 0.06856 0.06856 0.06857 0.06858 0.06859 0.0686 0.0686 0.06861 0.06862 0.06863 0.06864 0.06865 0.06866 0.06866 0.06866 0.06866 0.06863 0.06857 
0.05068 0.05065 0.05066 0.05067 0.05067 0.05068 0.05069 0.05069 0.0507 0.05071 0.05072 0.05073 0.05073 0.05074 0.05075 0.05076 0.05076 0.05076 0.05076 0.05073 0.05068 
0.03583 0.0358 0.03581 0.03581 0.03582 0.03582 0.03583 0.03584 0.03584 0.03585 0.03585 0.03586 0.03587 0.03587 0.03588 0.03589 0.03589 0.03589 0.03589 0.03587 0.03583 
0.02422 0.0242 0.0242 0.0242 0.02421 0.02421 0.02422 0.02422 0.02423 0.02423 0.02424 0.02424 0.02425 0.02425 0.02426 0.02426 0.02426 0.02426 0.02426 0.02425 0.02422 
0.01565 0.01563 0.01564 0.01564 0.01564 0.01565 0.01565 0.01565 0.01566 0.01566 0.01566 0.01567 0.01567 0.01567 0.01568 0.01568 0.01568 0.01568 0.01568 0.01567 0.01565 
0.009665 0.009653 0.009655 0.009657 0.00966 0.009662 0.009664 0.009667 0.009669 0.009672 0.009674 0.009677 0.009679 0.009681 0.009683 0.009684 0.009686 0.009686 0.009687 0.009682 0.009665 
0.005704 0.005695 0.005696 0.005698 0.0057 0.005701 0.005703 0.005704 0.005706 0.005708 0.005709 0.005711 0.005712 0.005713 0.005715 0.005716 0.005717 0.005717 0.005718 0.005715 0.005704 
0.003216 0.00321 0.00321 0.003211 0.003212 0.003213 0.003214 0.003215 0.003216 0.003217 0.003218 0.003219 0.00322 0.003221 0.003222 0.003222 0.003223 0.003224 0.003224 0.003222 0.003216 
0.001731 0.001727 0.001728 0.001728 0.001729 0.001729 0.00173 0.001731 0.001731 0.001732 0.001732 0.001733 0.001733 0.001734 0.001734 0.001735 0.001735 0.001736 0.001736 0.001735 0.001731 
0.00089 0.0008874 0.0008877 0.000888 0.0008883 0.0008886 0.000889 0.0008893 0.0008896 0.0008899 0.0008902 0.0008906 0.0008909 0.0008912 0.0008915 0.0008917 0.000892 0.0008922 0.0008923 0.0008921 0.00089 
0.0004367 0.0004353 0.0004354 0.0004355 0.0004357 0.0004359 0.0004361 0.0004362 0.0004364 0.0004366 0.0004367 0.0004369 0.0004371 0.0004373 0.0004374 0.0004376 0.0004377 0.0004378 0.0004379 0.0004378 0.0004367 
0.000205 0.0002042 0.0002042 0.0002043 0.0002044 0.0002045 0.0002046 0.0002047 0.0002048 0.0002049 0.0002049 0.000205 0.0002051 0.0002052 0.0002053 0.0002054 0.0002054 0.0002055 0.0002055 0.0002055 0.000205 
9.333e-05 9.292e-05 9.293e-05 9.297e-05 9.301e-05 9.305e-05 9.309e-05 9.313e-05 9.317e-05 9.321e-05 9.325e-05 9.33e-05 9.334e-05 9.338e-05 9.342e-05 9.346e-05 9.35e-05 9.353e-05 9.355e-05 9.355e-05 9.333e-05 
4.464e-05 4.446e-05 4.445e-05 4.447e-05 4.449e-05 4.45e-05 4.452e-05 4.454e-05 4.456e-05 4.457e-05 4.459e-05 4.461e-05 4.463e-05 4.465e-05 4.466e-05 4.468e-05 4.47e-05 4.471e-05 4.472e-05 4.473e-05 4.464e-05 
3.069e-05 3.064e-05 3.064e-05 3.064e-05 3.065e-05 3.065e-05 3.065e-05 3.066e-05 3.066e-05 3.066e-05 3.067e-05 3.067e-05 3.067e-05 3.068e-05 3.068e-05 3.069e-05 3.069e-05 3.07e-05 3.07e-05 3.07e-05 3.069e-05 
4.246e-05 4.253e-05 4.254e-05 4.253e-05 4.252e-05 4.252e-05 4.251e-05 4.25e-05 4.249e-05 4.248e-05 4.248e-05 4.247e-05 4.246e-05 4.245e-05 4.245e-05 4.244e-05 4.244e-05 4.243e-05 4.243e-05 4.243e-05 4.246e-05 
8.669e-05 8.694e-05 8.697e-05 8.695e-05 8.693e-05 8.69e-05 8.688e-05 8.686e-05 8.683e-05 8.681e-05 8.678e-05 8.676e-05 8.674e-05 8.671e-05 8.669e-05 8.667e-05 8.665e-05 8.663e-05 8.662e-05 8.661e-05 8.669e-05 
0.0001881 0.0001887 0.0001888 0.0001887 0.0001887 0.0001886 0.0001886 0.0001885 0.0001885 0.0001884 0.0001884 0.0001883 0.0001883 0.0001882 0.0001882 0.0001881 0.0001881 0.000188 0.000188 0.000188 0.0001881 
0.0003974 0.0003986 0.0003988 0.0003988 0.0003987 0.0003986 0.0003985 0.0003984 0.0003983 0.0003982 0.0003981 0.000398 0.0003979 0.0003977 0.0003976 0.0003975 0.0003974 0.0003973 0.0003972 0.0003972 0.0003974 
0.0008053 0.0008077 0.0008081 0.0008082 0.000808 0.0008078 0.0008076 0.0008074 0.0008072 0.000807 0.0008068 0.0008065 0.0008063 0.0008061 0.0008059 0.0008057 0.0008055 0.0008053 0.0008051 0.000805 0.0008053 
0.001561 0.001566 0.001567 0.001567 0.001567 0.001566 0.001566 0.001566 0.001565 0.001565 0.001564 0.001564 0.001564 0.001563 0.001563 0.001562 0.001562 0.001562 0.001561 0.001561 0.001561 
0.002896 0.002904 0.002906 0.002907 0.002906 0.002906 0.002905 0.002904 0.002904 0.002903 0.002902 0.002902 0.002901 0.0029 0.002899 0.002899 0.002898 0.002897 0.002897 0.002896 0.002896 
0.00514 0.005153 0.005156 0.005158 0.005158 0.005157 0.005156 0.005155 0.005153 0.005152 0.005151 0.00515 0.005149 0.005148 0.005146 0.005145 0.005144 0.005143 0.005142 0.005141 0.00514 
0.00873 0.008748 0.008753 0.008758 0.008758 0.008757 0.008755 0.008754 0.008752 0.00875 0.008748 0.008746 0.008744 0.008742 0.008741 0.008739 0.008737 0.008735 0.008733 0.008731 0.00873 
0.01419 0.01421 0.01422 0.01423 0.01423 0.01423 0.01423 0.01423 0.01422 0.01422 0.01422 0.01421 0.01421 0.01421 0.01421 0.0142 0.0142 0.0142 0.01419 0.01419 0.01419 
0.02207 0.0221 0.02212 0.02213 0.02213 0.02213 0.02213 0.02213 0.02212 0.02212 0.02212 0.02211 0.02211 0.0221 0.0221 0.02209 0.02209 0.02209 0.02208 0.02208 0.02207 
</DataArray>
<DataArray Name="E" NumberOfComponents="1" format="ascii" type="Float64">
-40.44 -40.44 -40.44 -40.44 -40.44 -40.44 -40.44 -40.44 -40.45 -40.45 -40.45 -40.45 -40.45 -40.45 -40.45 -40.45 -40.45 -40.45 -40.46 -40.46 -40.46 
-40.44 -40.44 -40.44 -40.44 -40.44 -40.44 -40.44 -40.44 -40.45 -40.45 -40.45 -40.45 -40.45 -40.45 -40.45 -40.45 -40.45 -40.45 -40.46 -40.46 -40.46 
-40.44 -40.44 -40.44 -40.44 -40.44 -40.44 -40.44 -40.44 -40.45 -40.45 -40.45 -40.45 -40.45 -40.45 -40.45 -40.45 -40.45 -40.45 -40.46 -40.46 -40.46 
-40.44 -40.44 -40.44 -40.44 -40.44 -40.44 -40.44 -40.44 -40.45 -40.45 -40.45 -40.45 -40.45 -40.45 -40.45 -40.45 -40.45 -40.45 -40.46 -40.46 -40.46 
-40.44 -40.44 -40.44 -40.44 -40.44 -40.44 -40.44 -40.44 -40.45 -40.45 -40.45 -40.45 -40.45 -40.45 -40.45 -40.45 -40.45 -40.45 -40.46 -40.46 -40.46 
-40.44 -40.44 -40.44 -40.44 -40.44 -40.44 -40.44 -40.44 -40.45 -40.45 -40.45 -40.45 -40.45 -40.45 -40.45 -40.45 -40.45 -40.45 -40.46 -40.46 -40.46 
-40.44 -40.44 -40.44 -40.44 -40.44 -40.44 -40.44 -40.44 -40.45 -40.45 -40.45 -40.45 -40.45 -40.45 -40.45 -40.45 -40.45 -40.45 -40.46 -40.46 -40.46 
-40.44 -40.44 -40.44 -40.44 -40.44 -40.44 -40.44 -40.44 -40.45 -40.45 -40.45 -40.45 -40.45 -40.45 -40.45 -40.45 -40.45 -40.45 -40.46 -40.46 -40.46 
-40.44 -40.44 -40.44 -40.44 -40.44 -40.44 -40.44 -40.44 -40.45 -40.45 -40.45 -40.45 -40.45 -40.45 -40.45 -40.45 -40.45 -40.45 -40.46 -40.46 -40.46 
-40.44 -40.44 -40.44 -40.44 -40.44 -40.44 -40.44 -40.44 -40.45 -40.45 -40.45 -40.45 -40.45 -40.45 -40.45 -40.45 -40.45 -40.45 -40.46 -40.46 -40.46 
-40.44 -40.44 -40.44 -40.44 -40.44 -40.44 -40.44 -40.44 -40.45 -40.45 -40.45 -40.45 -40.45 -40.45 -40.45 -40.45 -40.45 -40.45 -40.46 -40.46 -40.46 
-40.44 -40.44 -40.44 -40.44 -40.44 -40.44 -40.44 -40.44 -40.45 -40.45 -40.45 -40.45 -40.45 -40.45 -40.45 -40.45 -40.45 -40.45 -40.46 -40.46 -40.46 
-40.44 -40.44 -40.44 -40.44 -40.44 -40.44 -40.44 -40.44 -40.45 -40.45 -40.45 -40.45 -40.45 -40.45 -40.45 -40.45 -40.45 -40.45 -40.46 -40.46 -40.46 
-40.44 -40.44 -40.44 -40.44 -40.44 -40.44 -40.44 -40.44 -40.45 -40.45 -40.45 -40.45 -40.45 -40.45 -40.45 -40.45 -40.45 -40.45 -40.46 -40.46 -40.46 
-40.44 -40.44 -40.44 -40.44 -40.44 -40.44 -40.44 -40.44 -40.45 -40.45 -40.45 -40.45 -40.45 -40.45 -40.45 -40.45 -40.45 -40.45 -40.46 -40.46 -40.46 
-40.44 -40.44 -40.44 -40.44 -40.44 -40.44 -40.44 -40.44 -40.45 -40.45 -40.45 -40.45 -40.45 -40.45 -40.45 -40.45 -40.45 -40.45 -40.46 -40.46 -40.46 
-40.44 -40.44 -40.44 -40.44 -40.44 -40.44 -40.44 -40.44 -40.45 -40.45 -40.45 -40.45 -40.45 -40.45 -40.45 -40.45 -40.45 -40.45 -40.46 -40.46 -40.46 
-40.44 -40.44 -40.44 -40.44 -40.44 -40.44 -40.44 -40.44 -40.45 -40.45 -40.45 -40.45 -40.45 -40.45 -40.45 -40.45 -40.45 -40.45 -40.46 -40.46 -40.46 
-40.44 -40.44 -40.44 -40.44 -40.44 -40.44 -40.44 -40.44 -40.45 -40.45 -40.45 -40.45 -40.45 -40.45 -40.45 -40.45 -40.45 -40.45 -40.46 -40.46 -40.46 
-40.44 -40.44 -40.44 -40.44 -40.44 -40.44 -40.44 -40.44 -40.45 -40.45 -40.45 -40.45 -40.45 -40.45 -40.45 -40.45 -40.45 -40.45 -40.46 -40.46 -40.46 
-40.44 -40.44 -40.44 -40.44 -40.44 -40.44 -40.44 -40.44 -40.45 -40.45 -40.45 -40.45 -40.45 -40.45 -40.45 -40.45 -40.45 -40.45 -40.46 -40.46 -40.46 
-40.44 -40.44 -40.44 -40.44 -40.44 -40.44 -40.44 -40.44 -40.45 -40.45 -40.45 -40.45 -40.45 -40.45 -40.45 -40.45 -40.45 -40.45 -40.46 -40.46 -40.46 
-40.44 -40.44 -40.44 -40.44 -40.44 -40.44 -40.44 -40.44 -40.45 -40.45 -40.45 -40.45 -40.45 -40.45 -40.45 -40.45 -40.45 -40.45 -40.46 -40.46 -40.46 
-40.44 -40.44 -40.44 -40.44 -40.44 -40.44 -40.44 -40.44 -40.45 -40.45 -40.45 -40.45 -40.45 -40.45 -40.45 -40.45 -40.45 -40.45 -40.46 -40.46 -40.46 
-40.44 -40.44 -40.44 -40.44 -40.44 -40.44 -40.44 -40.44 -40.45 -40.45 -40.45 -40.45 -40.45 -40.45 -40.45 -40.45 -40.45 -40.45 -40.46 -40.46 -40.46 
-40.44 -40.44 -40.44 -40.44 -40.44 -40.44 -40.44 -40.44 -40.45 -40.45 -40.45 -40.45 -40.45 -40.45 -40.45 -40.45 -40.45 -40.45 -40.46 -40.46 -40.46 
-40.44 -40.44 -40.44 -40.44 -40.44 -40.44 -40.44 -40.44 -40.45 -40.45 -40.45 -40.45 -40.45 -40.45 -40.45 -40.45 -40.45 -40.45 -40.46 -40.46 -40.46 
-40.44 -40.44 -40.44 -40.44 -40.44 -40.44 -40.44 -40.44 -40.45 -40.45 -40.45 -40.45 -40.45 -40.45 -40.45 -40.45 -40.45 -40.45 -40.46 -40.46 -40.46 
-40.44 -40.44 -40.44 -40.44 -40.44 -40.44 -40.44 -40.44 -40.45 -40.45 -40.45 -40.45 -40.45 -40.45 -40.45 -40.45 -40.45 -40.45 -40.46 -40.46 -40.46 
-40.44 -40.44 -40.44 -40.44 -40.44 -40.44 -40.44 -40.44 -40.45 -40.45 -40.45 -40.45 -40.45 -40.45 -40.45 -40.45 -40.45 -40.45 -40.46 -40.46 -40.46 
-40.44 -40.44 -40.44 -40.44 -40.44 -40.44 -40.44 -40.44 -40.45 -40.45 -40.45 -40.45 -40.45 -40.45 -40.45 -40.45 -40.45 -40.45 -40.46 -40.46 -40.46 
-40.44 -40.44 -40.44 -40.44 -40.44 -40.44 -40.44 -40.44 -40.45 -40.45 -40.45 -40.45 -40.45 -40.45 -40.45 -40.45 -40.45 -40.45 -40.46 -40.46 -40.46 
-40.44 -40.44 -40.44 -40.44 -40.44 -40.44 -40.44 -40.44 -40.45 -40.45 -40.45 -40.45 -40.45 -40.45 -40.45 -40.45 -40.45 -40.45 -40.46 -40.46 -40.46 
-40.44 -40.44 -40.44 -40.44 -40.44 -40.44 -40.44 -40.44 -40.45 -40.45 -40.45 -40.45 -40.45 -40.45 -40.45 -40.45 -40.45 -40.45 -40.46 -40.46 -40.46 
-40.44 -40.44 -40.44 -40.44 -40.44 -40.44 -40.44 -40.44 -40.45 -40.45 -40.45 -40.45 -40.45 -40.45 -40.45 -40.45 -40.45 -40.45 -40.46 -40.46 -40.46 
-40.44 -40.44 -40.44 -40.44 -40.44 -40.44 -40.44 -40.44 -40.45 -40.45 -40.45 -40.45 -40.45 -40.45 -40.45 -40.45 -40.45 -40.45 -40.46 -40.46 -40.46 
-40.44 -40.44 -40.44 -40.44 -40.44 -40.44 -40.44 -40.44 -40.45 -40.45 -40.45 -40.45 -40.45 -40.45 -40.45 -40.45 -40.45 -40.45 -40.46 -40.46 -40.46 
-40.44 -40.44 -40.44 -40.44 -40.44 -40.44 -40.44 -40.44 -40.45 -40.45 -40.45 -40.45 -40.45 -40.45 -40.45 -40.45 -40.45 -40.45 -40.46 -40.46 -40.46 
-40.44 -40.44 -40.44 -40.44 -40.44 -40.44 -40.44 -40.44 -40.45 -40.45 -40.45 -40.45 -40.45 -40.45 -40.45 -40.45 -40.45 -40.45 -40.46 -40.46 -40.46 
-40.44 -40.44 -40.44 -40.44 -40.44 -40.44 -40.44 -40.44 -40.45 -40.45 -40.45 -40.45 -40.45 -40.45 -40.45 -40.45 -40.45 -40.45 -40.46 -40.46 -40.46 
-40.44 -40.44 -40.44 -40.44 -40.44 -40.44 -40.44 -40.44 -40.45 -40.45 -40.45 -40.45 -40.45 -40.45 -40.45 -40.45 -40.45 -40.45 -40.46 -40.46 -40.46 
</DataArray>
<DataArray Name="ne" NumberOfComponents="1" format="ascii" type="Float64">
0.9183 0.9184 0.9185 0.9185 0.9186 0.9186 0.9186 0.9186 0.9186 0.9186 0.9186 0.9186 0.9186 0.9186 0.9186 0.9186 0.9186 0.9186 0.9185 0.9184 0.9183 
0.9183 0.9184 0.9185 0.9185 0.9186 0.9186 0.9186 0.9186 0.9186 0.9186 0.9186 0.9186 0.9186 0.9186 0.9186 0.9186 0.9186 0.9186 0.9185 0.9184 0.9183 
0.9183 0.9184 0.9185 0.9185 0.9186 0.9186 0.9186 0.9186 0.9186 0.9186 0.9186 0.9186 0.9186 0.9186 0.9186 0.9186 0.9186 0.9186 0.9185 0.9184 0.9183 
0.9183 0.9184 0.9185 0.9185 0.9186 0.9186 0.9186 0.9186 0.9186 0.9186 0.9186 0.9186 0.9186 0.9186 0.9186 0.9186 0.9186 0.9186 0.9185 0.9184 0.9183 
0.9183 0.9184 0.9185 0.9185 0.9186 0.9186 0.9186 0.9186 0.9186 0.9186 0.9186 0.9186 0.9186 0.9186 0.9186 0.9186 0.9186 0.9186 0.9185 0.9184 0.9183 
0.9183 0.9184 0.9185 0.9185 0.9186 0.9186 0.9186 0.9186 0.9186 0.9186 0.9186 0.9186 0.9186 0.9186 0.9186 0.9186 0.9186 0.9186 0.9185 0.9184 0.9183 
0.9183 0.9184 0.9185 0.9185 0.9186 0.9186 0.9186 0.9186 0.9186 0.9186 0.9186 0.9186 0.9186 0.9186 0.9186 0.9186 0.9186 0.9186 0.9185 0.9184 0.9183 
0.9183 0.9184 0.9185 0.9185 0.9186 0.9186 0.9186 0.9186 0.9186 0.9186 0.9186 0.9186 0.9186 0.9186 0.9186 0.9186 0.9186 0.9186 0.9185 0.9184 0.9183 
0.9183 0.9184 0.9185 0.9185 0.9186 0.9186 0.9186 0.9186 0.9186 0.9186 0.9186 0.9186 0.9186 0.9186 0.9186 0.9186 0.9186 0.9186 0.9185 0.9184 0.9183 
0.9183 0.9184 0.9185 0.9185 0.9186 0.9186 0.9186 0.9186 0.9186 0.9186 0.9186 0.9186 0.9186 0.9186 0.9186 0.9186 0.9186 0.9186 0.9185 0.9184 0.9183 
0.9183 0.9184 0.9185 0.9185 0.9186 0.9186 0.9186 0.9186 0.9186 0.9186 0.9186 0.9186 0.9186 0.9186 0.9186 0.9186 0.9186 0.9186 0.9185 0.9184 0.9183 
0.9183 0.9184 0.9185 0.9185 0.9186 0.9186 0.9186 0.9186 0.9186 0.9186 0.9186 0.9186 0.9186 0.9186 0.9186 0.9186 0.9186 0.9186 0.9185 0.9184 0.9183 
0.9183 0.9184 0.9185 0.9185 0.9186 0.9186 0.9186 0.9186 0.9186 0.9186 0.9186 0.9186 0.9186 0.9186 0.9186 0.9186 0.9186 0.9186 0.9185 0.9184 0.9183 
0.9183 0.9184 0.9185 0.9185 0.9186 0.9186 0.9186 0.9186 0.9186 0.9186 0.9186 0.9186 0.9186 0.9186 0.9186 0.9186 0.9186 0.9186 0.9185 0.9184 0.9183 
0.9183 0.9184 0.9185 0.9185 0.9186 0.9186 0.9186 0.9186 0.9186 0.9186 0.9186 0.9186 0.9186 0.9186 0.9186 0.9186 0.9186 0.9186 0.9185 0.9184 0.9183 
0.9183 0.9184 0.9185 0.9185 0.9186 0.9186 0.9186 0.9186 0.9186 0.9186 0.9186 0.9186 0.9186 0.9186 0.9186 0.9186 0.9186 0.9186 0.9185 0.9184 0.9183 
0.9183 0.9184 0.9185 0.9185 0.9186 0.9186 0.9186 0.9186 0.9186 0.9186 0.9186 0.9186 0.9186 0.9186 0.9186 0.9186 0.9186 0.9186 0.9185 0.9184 0.9183 
0.9183 0.9184 0.9185 0.9185 0.9186 0.9186 0.9186 0.9186 0.9186 0.9186 0.9186 0.9186 0.9186 0.9186 0.9186 0.9186 0.9186 0.9186 0.9185 0.9184 0.9183 
0.9183 0.9184 0.9185 0.9185 0.9186 0.9186 0.9186 0.9186 0.9186 0.9186 0.9186 0.9186 0.9186 0.9186 0.9186 0.9186 0.9186 0.9186 0.9185 0.9184 0.9183 
0.9183 0.9184 0.9185 0.9185 0.9186 0.9186 0.9186 0.9186 0.9186 0.9186 0.9186 0.9186 0.9186 0.9186 0.9186 0.9186 0.9186 0.9186 0.9185 0.9184 0.9183 
0.9183 0.9184 0.9185 0.9185 0.9186 0.9186 0.9186 0.9186 0.9186 0.9186 0.9186 0.9186 0.9186 0.9186 0.9186 0.9186 0.9186 0.9186 0.9185 0.9184 0.9183 
0.9183 0.9184 0.9185 0.9185 0.9186 0.9186 0.9186 0.9186 0.9186 0.9186 0.9186 0.9186 0.9186 0.9186 0.9186 0.9186 0.9186 0.9186 0.9185 0.9184 0.9183 
0.9183 0.9184 0.9185 0.9185 0.9186 0.9186 0.9186 0.9186 0.9186 0.9186 0.9186 0.9186 0.9186 0.9186 0.9186 0.9186 0.9186 0.9186 0.9185 0.9184 0.9183 
0.9183 0.9184 0.9185 0.9185 0.9186 0.9186 0.9186 0.9186 0.9186 0.9186 0.9186 0.9186 0.9186 0.9186 0.9186 0.9186 0.9186 0.9186 0.9185 0.9184 0.9183 
0.9183 0.9184 0.9185 0.9185 0.9186 0.9186 0.9186 0.9186 0.9186 0.9186 0.9186 0.9186 0.9186 0.9186 0.9186 0.9186 0.9186 0.9186 0.9185 0.9184 0.9183 
0.9183 0.9184 0.9185 0.9185 0.9186 0.9186 0.9186 0.9186 0.9186 0.9186 0.9186 0.9186 0.9186 0.9186 0.9186 0.9186 0.9186 0.9186 0.9185 0.9184 0.9183 
0.9183 0.9184 0.9185 0.9185 0.9186 0.9186 0.9186 0.9186 0.9186 0.9186 0.9186 0.9186 0.9186 0.9186 0.9186 0.9186 0.9186 0.9186 0.9185 0.9184 0.9183 
0.9183 0.9184 0.9185 0.9185 0.9186 0.9186 0.9186 0.9186 0.9186 0.9186 0.9186 0.9186 0.9186 0.9186 0.9186 0.9186 0.9186 0.9186 0.9185 0.9184 0.9183 
0.9183 0.9184 0.9185 0.9185 0.9186 0.9186 0.9186 0.9186 0.9186 0.9186 0.9186 0.9186 0.9186 0.9186 0.9186 0.9186 0.9186 0.9186 0.9185 0.9184 0.9183 
0.9183 0.9184 0.9185 0.9185 0.9186 0.9186 0.9186 0.9186 0.9186 0.9186 0.9186 0.9186 0.9186 0.9186 0.9186 0.9186 0.9186 0.9186 0.9185 0.9184 0.9183 
0.9183 0.9184 0.9185 0.9185 0.9186 0.9186 0.9186 0.9186 0.9186 0.9186 0.9186 0.9186 0.9186 0.9186 0.9186 0.9186 0.9186 0.9186 0.9185 0.9184 0.9183 
0.9183 0.9184 0.9185 0.9185 0.9186 0.9186 0.9186 0.9186 0.9186 0.9186 0.9186 0.9186 0.9186 0.9186 0.9186 0.9186 0.9186 0.9186 0.9185 0.9184 0.9183 
0.9183 0.9184 0.9185 0.9185 0.9186 0.9186 0.9186 0.9186 0.9186 0.9186 0.9186 0.9186 0.9186 0.9186 0.9186 0.9186 0.9186 0.9186 0.9185 0.9184 0.9183 
0.9183 0.9184 0.9185 0.9185 0.9186 0.9186 0.9186 0.9186 0.9186 0.9186 0.9186 0.9186 0.9186 0.9186 0.9186 0.9186 0.9186 0.9186 0.9185 0.9184 0.9183 
0.9183 0.9184 0.9185 0.9185 0.9186 0.9186 0.9186 0.9186 0.9186 0.9186 0.9186 0.9186 0.9186 0.9186 0.9186 0.9186 0.9186 0.9186 0.9185 0.9184 0.9183 
0.9183 0.9184 0.9185 0.9185 0.9186 0.9186 0.9186 0.9186 0.9186 0.9186 0.9186 0.9186 0.9186 0.9186 0.9186 0.9186 0.9186 0.9186 0.9185 0.9184 0.9183 
0.9183 0.9184 0.9185 0.9185 0.9186 0.9186 0.9186 0.9186 0.9186 0.9186 0.9186 0.9186 0.9186 0.9186 0.9186 0.9186 0.9186 0.9186 0.9185 0.9184 0.9183 
0.9183 0.9184 0.9185 0.9185 0.9186 0.9186 0.9186 0.9186 0.9186 0.9186 0.9186 0.9186 0.9186 0.9186 0.9186 0.9186 0.9186 0.9186 0.9185 0.9184 0.9183 
0.9183 0.9184 0.9185 0.9185 0.9186 0.9186 0.9186 0.9186 0.9186 0.9186 0.9186 0.9186 0.9186 0.9186 0.9186 0.9186 0.9186 0.9186 0.9185 0.9184 0.9183 
0.9183 0.9184 0.9185 0.9185 0.9186 0.9186 0.9186 0.9186 0.9186 0.9186 0.9186 0.9186 0.9186 0.9186 0.9186 0.9186 0.9186 0.9186 0.9185 0.9184 0.9183 
0.9183 0.9184 0.9185 0.9185 0.9186 0.9186 0.9186 0.9186 0.9186 0.9186 0.9186 0.9186 0.9186 0.9186 0.9186 0.9186 0.9186 0.9186 0.9185 0.9184 0.9183 
</DataArray>
</PointData>
</Piece>
</ImageData>
</VTKFile>
