<VTKFile type="ImageData">
<ImageData Origin="0 -10 0" Spacing="0.5 0.5 1" WholeExtent="0 20 0 40 0 0">
<Piece Extent="0 20 0 40 0 0">
<PointData>
<DataArray Name="f" NumberOfComponents="1" format="ascii" type="Float64">
0.0003048 0.0003048 0.0003048 0.0003048 0.0003048 0.0003048 0.0003048 0.0003048 0.0003048 0.0003048 0.0003048 0.0003048 0.0003048 0.0003048 0.0003048 0.0003048 0.0003048 0.0003048 0.0003048 0.0003048 0.0003048 
0.0008522 0.0008522 0.0008522 0.0008522 0.0008522 0.0008522 0.0008522 0.0008522 0.0008522 0.0008522 0.0008522 0.0008522 0.0008522 0.0008522 0.0008522 0.0008522 0.0008522 0.0008522 0.0008522 0.0008522 0.0008522 
0.002194 0.002194 0.002194 0.002194 0.002194 0.002194 0.002194 0.002194 0.002194 0.002194 0.002194 0.002194 0.002194 0.002194 0.002194 0.002194 0.002194 0.002194 0.002194 0.002194 0.002194 
0.0052 0.0052 0.0052 0.0052 0.0052 0.0052 0.0052 0.0052 0.0052 0.0052 0.0052 0.0052 0.0052 0.0052 0.0052 0.0052 0.0052 0.0052 0.0052 0.0052 0.0052 
0.01134 0.01134 0.01134 0.01134 0.01134 0.01134 0.01134 0.01134 0.01134 0.01134 0.01134 0.01134 0.01134 0.01134 0.01134 0.01134 0.01134 0.01134 0.01134 0.01134 0.01134 
0.02273 0.02273 0.02273 0.02273 0.02273 0.02273 0.02273 0.02273 0.02273 0.02273 0.02273 0.02273 0.02273 0.02273 0.02273 0.02273 0.02273 0.02273 0.02273 0.02273 0.02273 
0.04186 0.04186 0.04186 0.04186 0.04186 0.04186 0.04186 0.04186 0.04186 0.04186 0.04186 0.04186 0.04186 0.04186 0.04186 0.04186 0.04186 0.04186 0.04186 0.04186 0.04186 
0.07072 0.07072 0.07072 0.07072 0.07072 0.07072 0.07072 0.07072 0.07072 0.07072 0.07072 0.07072 0.07072 0.07072 0.07072 0.07072 0.07072 0.07072 0.07072 0.07072 0.07072 
0.1094 0.1094 0.1094 0.1094 0.1094 0.1094 0.1094 0.1094 0.1094 0.1094 0.1094 0.1094 0.1094 0.1094 0.1094 0.1094 0.1094 0.1094 0.1094 0.1094 0.1094 
0.1549 0.1549 0.1549 0.1549 0.1549 0.1549 0.1549 0.1549 0.1549 0.1549 0.1549 0.1549 0.1549 0.1549 0.1549 0.1549 0.1549 0.1549 0.1549 0.1549 0.1549 
0.2001 0.2001 0.2001 0.2001 0.2001 0.2001 0.2001 0.2001 0.2001 0.2001 0.2001 0.2001 0.2001 0.2001 0.2001 0.2001 0.2001 0.2001 0.2001 0.2001 0.2001 
0.2354 0.2354 0.2354 0.2354 0.2354 0.2354 0.2354 0.2354 0.2354 0.2354 0.2354 0.2354 0.2354 0.2354 0.2354 0.2354 0.2354 0.2354 0.2354 0.2354 0.2354 
0.2517 0.2517 0.2517 0.2517 0.2517 0.2517 0.2517 0.2517 0.2517 0.2517 0.2517 0.2517 0.2517 0.2517 0.2517 0.2517 0.2517 0.2517 0.2517 0.2517 0.2517 
0.2437 0.2437 0.2437 0.2437 0.2437 0.2437 0.2437 0.2437 0.2437 0.2437 0.2437 0.2437 0.2437 0.2437 0.2437 0.2437 0.2437 0.2437 0.2437 0.2437 0.2437 
0.2131 0.2131 0.2131 0.2131 0.2131 0.2131 0.2131 0.2131 0.2131 0.2131 0.2131 0.2131 0.2131 0.2131 0.2131 0.2131 0.2131 0.2131 0.2131 0.2131 0.2131 
0.1677 0.1677 0.1677 0.1677 0.1677 0.1677 0.1677 0.1677 0.1677 0.1677 0.1677 0.1677 0.1677 0.1677 0.1677 0.1677 0.1677 0.1677 0.1677 0.1677 0.1677 
0.1183 0.1183 0.1183 0.1183 0.1183 0.1183 0.1183 0.1183 0.1183 0.1183 0.1183 0.1183 0.1183 0.1183 0.1183 0.1183 0.1183 0.1183 0.1183 0.1183 0.1183 
0.07445 0.07445 0.07445 0.07445 0.07445 0.07445 0.07445 0.07445 0.07445 0.07445 0.07445 0.07445 0.07445 0.07445 0.07445 0.07445 0.07445 0.07445 0.07445 0.07445 0.07445 
0.0416 0.0416 0.0416 0.0416 0.0416 0.0416 0.0416 0.0416 0.0416 0.0416 0.0416 0.0416 0.0416 0.0416 0.0416 0.0416 0.0416 0.0416 0.0416 0.0416 0.0416 
0.02053 0.02053 0.02053 0.02053 0.02053 0.02053 0.02053 0.02053 0.02053 0.02053 0.02053 0.02053 0.02053 0.02053 0.02053 0.02053 0.02053 0.02053 0.02053 0.02053 0.02053 
0.008895 0.008895 0.008895 0.008895 0.008895 0.008895 0.008895 0.008895 0.008895 0.008895 0.008895 0.008895 0.008895 0.008895 0.008895 0.008895 0.008895 0.008895 0.008895 0.008895 0.008895 
0.003361 0.003361 0.003361 0.003361 0.003361 0.003361 0.003361 0.003361 0.003361 0.003361 0.003361 0.003361 0.003361 0.003361 0.003361 0.003361 0.003361 0.003361 0.003361 0.003361 0.003361 
0.0011 0.0011 0.0011 0.0011 0.0011 0.0011 0.0011 0.0011 0.0011 0.0011 0.0011 0.0011 0.0011 0.0011 0.0011 0.0011 0.0011 0.0011 0.0011 0.0011 0.0011 
0.0003095 0.0003095 0.0003095 0.0003095 0.0003095 0.0003095 0.0003095 0.0003095 0.0003095 0.0003095 0.0003095 0.0003095 0.0003095 0.0003095 0.0003095 0.0003095 0.0003095 0.0003095 0.0003095 0.0003095 0.0003095 
7.425e-05 7.425e-05 7.425e-05 7.425e-05 7.425e-05 7.425e-05 7.425e-05 7.425e-05 7.425e-05 7.425e-05 7.425e-05 7.425e-05 7.425e-05 7.425e-05 7.425e-05 7.425e-05 7.425e-05 7.425e-05 7.425e-05 7.425e-05 7.425e-05 
1.507e-05 1.507e-05 1.507e-05 1.507e-05 1.507e-05 1.507e-05 1.507e-05 1.507e-05 1.507e-05 1.507e-05 1.507e-05 1.507e-05 1.507e-05 1.507e-05 1.507e-05 1.507e-05 1.507e-05 1.507e-05 1.507e-05 1.507e-05 1.507e-05 
2.564e-06 2.564e-06 2.564e-06 2.564e-06 2.564e-06 2.564e-06 2.564e-06 2.564e-06 2.564e-06 2.564e-06 2.564e-06 2.564e-06 2.564e-06 2.564e-06 2.564e-06 2.564e-06 2.564e-06 2.564e-06 2.564e-06 2.564e-06 2.564e-06 
3.629e-07 3.629e-07 3.629e-07 3.629e-07 3.629e-07 3.629e-07 3.629e-07 3.629e-07 3.629e-07 3.629e-07 3.629e-07 3.629e-07 3.629e-07 3.629e-07 3.629e-07 3.629e-07 3.629e-07 3.629e-07 3.629e-07 3.629e-07 3.629e-07 
4.236e-08 4.236e-08 4.236e-08 4.236e-08 4.236e-08 4.236e-08 4.236e-08 4.236e-08 4.236e-08 4.236e-08 4.236e-08 4.236e-08 4.236e-08 4.236e-08 4.236e-08 4.236e-08 4.236e-08 4.236e-08 4.236e-08 4.236e-08 4.236e-08 
4.046e-09 4.046e-09 4.046e-09 4.046e-09 4.046e-09 4.046e-09 4.046e-09 4.046e-09 4.046e-09 4.046e-09 4.046e-09 4.046e-09 4.046e-09 4.046e-09 4.046e-09 4.046e-09 4.046e-09 4.046e-09 4.046e-09 4.046e-09 4.046e-09 
3.285e-10 3.285e-10 3.285e-10 3.285e-10 3.285e-10 3.285e-10 3.285e-10 3.285e-10 3.285e-10 3.285e-10 3.285e-10 3.285e-10 3.285e-10 3.285e-10 3.285e-10 3.285e-10 3.285e-10 3.285e-10 3.285e-10 3.285e-10 3.285e-10 
1.259e-10 1.259e-10 1.259e-10 1.259e-10 1.259e-10 1.259e-10 1.259e-10 1.259e-10 1.259e-10 1.259e-10 1.259e-10 1.259e-10 1.259e-10 1.259e-10 1.259e-10 1.259e-10 1.259e-10 1.259e-10 1.259e-10 1.259e-10 1.259e-10 
6.937e-10 6.937e-10 6.937e-10 6.937e-10 6.937e-10 6.937e-10 6.937e-10 6.937e-10 6.937e-10 6.937e-10 6.937e-10 6.937e-10 6.937e-10 6.937e-10 6.937e-10 6.937e-10 6.937e-10 6.937e-10 6.937e-10 6.937e-10 6.937e-10 
4.128e-09 4.129e-09 4.129e-09 4.129e-09 4.129e-09 4.129e-09 4.129e-09 4.129e-09 4.129e-09 4.129e-09 4.129e-09 4.129e-09 4.129e-09 4.129e-09 4.129e-09 4.129e-09 4.129e-09 4.129e-09 4.129e-09 4.128e-09 4.128e-09 
2.253e-08 2.253e-08 2.253e-08 2.253e-08 2.253e-08 2.253e-08 2.253e-08 2.253e-08 2.253e-08 2.253e-08 2.253e-08 2.253e-08 2.253e-08 2.253e-08 2.253e-08 2.253e-08 2.253e-08 2.253e-08 2.253e-08 2.253e-08 2.253e-08 
1.128e-07 1.128e-07 1.128e-07 1.128e-07 1.128e-07 1.128e-07 1.128e-07 1.128e-07 1.128e-07 1.128e-07 1.128e-07 1.128e-07 1.128e-07 1.128e-07 1.128e-07 1.128e-07 1.128e-07 1.128e-07 1.128e-07 1.128e-07 1.128e-07 
5.185e-07 5.185e-07 5.185e-07 5.185e-07 5.185e-07 5.185e-07 5.185e-07 5.185e-07 5.185e-07 5.185e-07 5.185e-07 5.185e-07 5.185e-07 5.185e-07 5.185e-07 5.185e-07 5.185e-07 5.185e-07 5.185e-07 5.185e-07 5.185e-07 
2.191e-06 2.191e-06 2.191e-06 2.191e-06 2.191e-06 2.191e-06 2.191e-06 2.191e-06 2.191e-06 2.191e-06 2.191e-06 2.191e-06 2.191e-06 2.191e-06 2.191e-06 2.191e-06 2.191e-06 2.191e-06 2.191e-06 2.191e-06 2.191e-06 
8.518e-06 8.518e-06 8.518e-06 8.518e-06 8.518e-06 8.518e-06 8.518e-06 8.518e-06 8.518e-06 8.518e-06 8.518e-06 8.518e-06 8.518e-06 8.518e-06 8.518e-06 8.518e-06 8.518e-06 8.518e-06 8.518e-06 8.518e-06 8.518e-06 
3.048e-05 3.048e-05 3.048e-05 3.048e-05 3.048e-05 3.048e-05 3.048e-05 3.048e-05 3.048e-05 3.048e-05 3.048e-05 3.048e-05 3.048e-05 3.048e-05 3.048e-05 3.048e-05 3.048e-05 3.048e-05 3.048e-05 3.048e-05 3.048e-05 
0.0001004 0.0001004 0.0001004 0.0001004 0.0001004 0.0001004 0.0001004 0.0001004 0.0001004 0.0001004 0.0001004 0.0001004 0.0001004 0.0001004 0.0001004 0.0001004 0.0001004 0.0001004 0.0001004 0.0001004 0.0001004 
</DataArray>
<DataArray Name="E" NumberOfComponents="1" format="ascii" type="Float64">
0.9548 0.9548 0.9548 0.9548 0.9548 0.9548 0.9548 0.9548 0.9548 0.9548 0.9548 0.9548 0.9548 0.9548 0.9548 0.9548 0.9548 0.9548 0.9548 0.9548 0.9548 
0.9548 0.9548 0.9548 0.9548 0.9548 0.9548 0.9548 0.9548 0.9548 0.9548 0.9548 0.9548 0.9548 0.9548 0.9548 0.9548 0.9548 0.9548 0.9548 0.9548 0.9548 
0.9548 0.9548 0.9548 0.9548 0.9548 0.9548 0.9548 0.9548 0.9548 0.9548 0.9548 0.9548 0.9548 0.9548 0.9548 0.9548 0.9548 0.9548 0.9548 0.9548 0.9548 
0.9548 0.9548 0.9548 0.9548 0.9548 0.9548 0.9548 0.9548 0.9548 0.9548 0.9548 0.9548 0.9548 0.9548 0.9548 0.9548 0.9548 0.9548 0.9548 0.9548 0.9548 
0.9548 0.9548 0.9548 0.9548 0.9548 0.9548 0.9548 0.9548 0.9548 0.9548 0.9548 0.9548 0.9548 0.9548 0.9548 0.9548 0.9548 0.9548 0.9548 0.9548 0.9548 
0.9548 0.9548 0.9548 0.9548 0.9548 0.9548 0.9548 0.9548 0.9548 0.9548 0.9548 0.9548 0.9548 0.9548 0.9548 0.9548 0.9548 0.9548 0.9548 0.9548 0.9548 
0.9548 0.9548 0.9548 0.9548 0.9548 0.9548 0.9548 0.9548 0.9548 0.9548 0.9548 0.9548 0.9548 0.9548 0.9548 0.9548 0.9548 0.9548 0.9548 0.9548 0.9548 
0.9548 0.9548 0.9548 0.9548 0.9548 0.9548 0.9548 0.9548 0.9548 0.9548 0.9548 0.9548 0.9548 0.9548 0.9548 0.9548 0.9548 0.9548 0.9548 0.9548 0.9548 
0.9548 0.9548 0.9548 0.9548 0.9548 0.9548 0.9548 0.9548 0.9548 0.9548 0.9548 0.9548 0.9548 0.9548 0.9548 0.9548 0.9548 0.9548 0.9548 0.9548 0.9548 
0.9548 0.9548 0.9548 0.9548 0.9548 0.9548 0.9548 0.9548 0.9548 0.9548 0.9548 0.9548 0.9548 0.9548 0.9548 0.9548 0.9548 0.9548 0.9548 0.9548 0.9548 
0.9548 0.9548 0.9548 0.9548 0.9548 0.9548 0.9548 0.9548 0.9548 0.9548 0.9548 0.9548 0.9548 0.9548 0.9548 0.9548 0.9548 0.9548 0.9548 0.9548 0.9548 
0.9548 0.9548 0.9548 0.9548 0.9548 0.9548 0.9548 0.9548 0.9548 0.9548 0.9548 0.9548 0.9548 0.9548 0.9548 0.9548 0.9548 0.9548 0.9548 0.9548 0.9548 
0.9548 0.9548 0.9548 0.9548 0.9548 0.9548 0.9548 0.9548 0.9548 0.9548 0.9548 0.9548 0.9548 0.9548 0.9548 0.9548 0.9548 0.9548 0.9548 0.9548 0.9548 
0.9548 0.9548 0.9548 0.9548 0.9548 0.9548 0.9548 0.9548 0.9548 0.9548 0.9548 0.9548 0.9548 0.9548 0.9548 0.9548 0.9548 0.9548 0.9548 0.9548 0.9548 
0.9548 0.9548 0.9548 0.9548 0.9548 0.9548 0.9548 0.9548 0.9548 0.9548 0.9548 0.9548 0.9548 0.9548 0.9548 0.9548 0.9548 0.9548 0.9548 0.9548 0.9548 
0.9548 0.9548 0.9548 0.9548 0.9548 0.9548 0.9548 0.9548 0.9548 0.9548 0.9548 0.9548 0.9548 0.9548 0.9548 0.9548 0.9548 0.9548 0.9548 0.9548 0.9548 
0.9548 0.9548 0.9548 0.9548 0.9548 0.9548 0.9548 0.9548 0.9548 0.9548 0.9548 0.9548 0.9548 0.9548 0.9548 0.9548 0.9548 0.9548 0.9548 0.9548 0.9548 
0.9548 0.9548 0.9548 0.9548 0.9548 0.9548 0.9548 0.9548 0.9548 0.9548 0.9548 0.9548 0.9548 0.9548 0.9548 0.9548 0.9548 0.9548 0.9548 0.9548 0.9548 
0.9548 0.9548 0.9548 0.9548 0.9548 0.9548 0.9548 0.9548 0.9548 0.9548 0.9548 0.9548 0.9548 0.9548 0.9548 0.9548 0.9548 0.9548 0.9548 0.9548 0.9548 
0.9548 0.9548 0.9548 0.9548 0.9548 0.9548 0.9548 0.9548 0.9548 0.9548 0.9548 0.9548 0.9548 0.9548 0.9548 0.9548 0.9548 0.9548 0.9548 0.9548 0.9548 
0.9548 0.9548 0.9548 0.9548 0.9548 0.9548 0.9548 0.9548 0.9548 0.9548 0.9548 0.9548 0.9548 0.9548 0.9548 0.9548 0.9548 0.9548 0.9548 0.9548 0.9548 
0.9548 0.9548 0.9548 0.9548 0.9548 0.9548 0.9548 0.9548 0.9548 0.9548 0.9548 0.9548 0.9548 0.9548 0.9548 0.9548 0.9548 0.9548 0.9548 0.9548 0.9548 
0.9548 0.9548 0.9548 0.9548 0.9548 0.9548 0.9548 0.9548 0.9548 0.9548 0.9548 0.9548 0.9548 0.9548 0.9548 0.9548 0.9548 0.9548 0.9548 0.9548 0.9548 
0.9548 0.9548 0.9548 0.9548 0.9548 0.9548 0.9548 0.9548 0.9548 0.9548 0.9548 0.9548 0.9548 0.9548 0.9548 0.9548 0.9548 0.9548 0.9548 0.9548 0.9548 
0.9548 0.9548 0.9548 0.9548 0.9548 0.9548 0.9548 0.9548 0.9548 0.9548 0.9548 0.9548 0.9548 0.9548 0.9548 0.9548 0.9548 0.9548 0.9548 0.9548 0.9548 
0.9548 0.9548 0.9548 0.9548 0.9548 0.9548 0.9548 0.9548 0.9548 0.9548 0.9548 0.9548 0.9548 0.9548 0.9548 0.9548 0.9548 0.9548 0.9548 0.9548 0.9548 
0.9548 0.9548 0.9548 0.9548 0.9548 0.9548 0.9548 0.9548 0.9548 0.9548 0.9548 0.9548 0.9548 0.9548 0.9548 0.9548 0.9548 0.9548 0.9548 0.9548 0.9548 
0.9548 0.9548 0.9548 0.9548 0.9548 0.9548 0.9548 0.9548 0.9548 0.9548 0.9548 0.9548 0.9548 0.9548 0.9548 0.9548 0.9548 0.9548 0.9548 0.9548 0.9548 
0.9548 0.9548 0.9548 0.9548 0.9548 0.9548 0.9548 0.9548 0.9548 0.9548 0.9548 0.9548 0.9548 0.9548 0.9548 0.9548 0.9548 0.9548 0.9548 0.9548 0.9548 
0.9548 0.9548 0.9548 0.9548 0.9548 0.9548 0.9548 0.9548 0.9548 0.9548 0.9548 0.9548 0.9548 0.9548 0.9548 0.9548 0.9548 0.9548 0.9548 0.9548 0.9548 
0.9548 0.9548 0.9548 0.9548 0.9548 0.9548 0.9548 0.9548 0.9548 0.9548 0.9548 0.9548 0.9548 0.9548 0.9548 0.9548 0.9548 0.9548 0.9548 0.9548 0.9548 
0.9548 0.9548 0.9548 0.9548 0.9548 0.9548 0.9548 0.9548 0.9548 0.9548 0.9548 0.9548 0.9548 0.9548 0.9548 0.9548 0.9548 0.9548 0.9548 0.9548 0.9548 
0.9548 0.9548 0.9548 0.9548 0.9548 0.9548 0.9548 0.9548 0.9548 0.9548 0.9548 0.9548 0.9548 0.9548 0.9548 0.9548 0.9548 0.9548 0.9548 0.9548 0.9548 
0.9548 0.9548 0.9548 0.9548 0.9548 0.9548 0.9548 0.9548 0.9548 0.9548 0.9548 0.9548 0.9548 0.9548 0.9548 0.9548 0.9548 0.9548 0.9548 0.9548 0.9548 
0.9548 0.9548 0.9548 0.9548 0.9548 0.9548 0.9548 0.9548 0.9548 0.9548 0.9548 0.9548 0.9548 0.9548 0.9548 0.9548 0.9548 0.9548 0.9548 0.9548 0.9548 
0.9548 0.9548 0.9548 0.9548 0.9548 0.9548 0.9548 0.9548 0.9548 0.9548 0.9548 0.9548 0.9548 0.9548 0.9548 0.9548 0.9548 0.9548 0.9548 0.9548 0.9548 
0.9548 0.9548 0.9548 0.9548 0.9548 0.9548 0.9548 0.9548 0.9548 0.9548 0.9548 0.9548 0.9548 0.9548 0.9548 0.9548 0.9548 0.9548 0.9548 0.9548 0.9548 
0.9548 0.9548 0.9548 0.9548 0.9548 0.9548 0.9548 0.9548 0.9548 0.9548 0.9548 0.9548 0.9548 0.9548 0.9548 0.9548 0.9548 0.9548 0.9548 0.9548 0.9548 
0.9548 0.9548 0.9548 0.9548 0.9548 0.9548 0.9548 0.9548 0.9548 0.9548 0.9548 0.9548 0.9548 0.9548 0.9548 0.9548 0.9548 0.9548 0.9548 0.9548 0.9548 
0.9548 0.9548 0.9548 0.9548 0.9548 0.9548 0.9548 0.9548 0.9548 0.9548 0.9548 0.9548 0.9548 0.9548 0.9548 0.9548 0.9548 0.9548 0.9548 0.9548 0.9548 
0.9548 0.9548 0.9548 0.9548 0.9548 0.9548 0.9548 0.9548 0.9548 0.9548 0.9548 0.9548 0.9548 0.9548 0.9548 0.9548 0.9548 0.9548 0.9548 0.9548 0.9548 
</DataArray>
<DataArray Name="ne" NumberOfComponents="1" format="ascii" type="Float64">
0.9999 0.9999 0.9999 0.9999 0.9999 0.9999 0.9999 0.9999 0.9999 0.9999 0.9999 0.9999 0.9999 0.9999 0.9999 0.9999 0.9999 0.9999 0.9999 0.9999 0.9999 
0.9999 0.9999 0.9999 0.9999 0.9999 0.9999 0.9999 0.9999 0.9999 0.9999 0.9999 0.9999 0.9999 0.9999 0.9999 0.9999 0.9999 0.9999 0.9999 0.9999 0.9999 
0.9999 0.9999 0.9999 0.9999 0.9999 0.9999 0.9999 0.9999 0.9999 0.9999 0.9999 0.9999 0.9999 0.9999 0.9999 0.9999 0.9999 0.9999 0.9999 0.9999 0.9999 
0.9999 0.9999 0.9999 0.9999 0.9999 0.9999 0.9999 0.9999 0.9999 0.9999 0.9999 0.9999 0.9999 0.9999 0.9999 0.9999 0.9999 0.9999 0.9999 0.9999 0.9999 
0.9999 0.9999 0.9999 0.9999 0.9999 0.9999 0.9999 0.9999 0.9999 0.9999 0.9999 0.9999 0.9999 0.9999 0.9999 0.9999 0.9999 0.9999 0.9999 0.9999 0.9999 
0.9999 0.9999 0.9999 0.9999 0.9999 0.9999 0.9999 0.9999 0.9999 0.9999 0.9999 0.9999 0.9999 0.9999 0.9999 0.9999 0.9999 0.9999 0.9999 0.9999 0.9999 
0.9999 0.9999 0.9999 0.9999 0.9999 0.9999 0.9999 0.9999 0.9999 0.9999 0.9999 0.9999 0.9999 0.9999 0.9999 0.9999 0.9999 0.9999 0.9999 0.9999 0.9999 
0.9999 0.9999 0.9999 0.9999 0.9999 0.9999 0.9999 0.9999 0.9999 0.9999 0.9999 0.9999 0.9999 0.9999 0.9999 0.9999 0.9999 0.9999 0.9999 0.9999 0.9999 
0.9999 0.9999 0.9999 0.9999 0.9999 0.9999 0.9999 0.9999 0.9999 0.9999 0.9999 0.9999 0.9999 0.9999 0.9999 0.9999 0.9999 0.9999 0.9999 0.9999 0.9999 
0.9999 0.9999 0.9999 0.9999 0.9999 0.9999 0.9999 0.9999 0.9999 0.9999 0.9999 0.9999 0.9999 0.9999 0.9999 0.9999 0.9999 0.9999 0.9999 0.9999 0.9999 
0.9999 0.9999 0.9999 0.9999 0.9999 0.9999 0.9999 0.9999 0.9999 0.9999 0.9999 0.9999 0.9999 0.9999 0.9999 0.9999 0.9999 0.9999 0.9999 0.9999 0.9999 
0.9999 0.9999 0.9999 0.9999 0.9999 0.9999 0.9999 0.9999 0.9999 0.9999 0.9999 0.9999 0.9999 0.9999 0.9999 0.9999 0.9999 0.9999 0.9999 0.9999 0.9999 
0.9999 0.9999 0.9999 0.9999 0.9999 0.9999 0.9999 0.9999 0.9999 0.9999 0.9999 0.9999 0.9999 0.9999 0.9999 0.9999 0.9999 0.9999 0.9999 0.9999 0.9999 
0.9999 0.9999 0.9999 0.9999 0.9999 0.9999 0.9999 0.9999 0.9999 0.9999 0.9999 0.9999 0.9999 0.9999 0.9999 0.9999 0.9999 0.9999 0.9999 0.9999 0.9999 
0.9999 0.9999 0.9999 0.9999 0.9999 0.9999 0.9999 0.9999 0.9999 0.9999 0.9999 0.9999 0.9999 0.9999 0.9999 0.9999 0.9999 0.9999 0.9999 0.9999 0.9999 
0.9999 0.9999 0.9999 0.9999 0.9999 0.9999 0.9999 0.9999 0.9999 0.9999 0.9999 0.9999 0.9999 0.9999 0.9999 0.9999 0.9999 0.9999 0.9999 0.9999 0.9999 
0.9999 0.9999 0.9999 0.9999 0.9999 0.9999 0.9999 0.9999 0.9999 0.9999 0.9999 0.9999 0.9999 0.9999 0.9999 0.9999 0.9999 0.9999 0.9999 0.9999 0.9999 
0.9999 0.9999 0.9999 0.9999 0.9999 0.9999 0.9999 0.9999 0.9999 0.9999 0.9999 0.9999 0.9999 0.9999 0.9999 0.9999 0.9999 0.9999 0.9999 0.9999 0.9999 
0.9999 0.9999 0.9999 0.9999 0.9999 0.9999 0.9999 0.9999 0.9999 0.9999 0.9999 0.9999 0.9999 0.9999 0.9999 0.9999 0.9999 0.9999 0.9999 0.9999 0.9999 
0.9999 0.9999 0.9999 0.9999 0.9999 0.9999 0.9999 0.9999 0.9999 0.9999 0.9999 0.9999 0.9999 0.9999 0.9999 0.9999 0.9999 0.9999 0.9999 0.9999 0.9999 
0.9999 0.9999 0.9999 0.9999 0.9999 0.9999 0.9999 0.9999 0.9999 0.9999 0.9999 0.9999 0.9999 0.9999 0.9999 0.9999 0.9999 0.9999 0.9999 0.9999 0.9999 
0.9999 0.9999 0.9999 0.9999 0.9999 0.9999 0.9999 0.9999 0.9999 0.9999 0.9999 0.9999 0.9999 0.9999 0.9999 0.9999 0.9999 0.9999 0.9999 0.9999 0.9999 
0.9999 0.9999 0.9999 0.9999 0.9999 0.9999 0.9999 0.9999 0.9999 0.9999 0.9999 0.9999 0.9999 0.9999 0.9999 0.9999 0.9999 0.9999 0.9999 0.9999 0.9999 
0.9999 0.9999 0.9999 0.9999 0.9999 0.9999 0.9999 0.9999 0.9999 0.9999 0.9999 0.9999 0.9999 0.9999 0.9999 0.9999 0.9999 0.9999 0.9999 0.9999 0.9999 
0.9999 0.9999 0.9999 0.9999 0.9999 0.9999 0.9999 0.9999 0.9999 0.9999 0.9999 0.9999 0.9999 0.9999 0.9999 0.9999 0.9999 0.9999 0.9999 0.9999 0.9999 
0.9999 0.9999 0.9999 0.9999 0.9999 0.9999 0.9999 0.9999 0.9999 0.9999 0.9999 0.9999 0.9999 0.9999 0.9999 0.9999 0.9999 0.9999 0.9999 0.9999 0.9999 
0.9999 0.9999 0.9999 0.9999 0.9999 0.9999 0.9999 0.9999 0.9999 0.9999 0.9999 0.9999 0.9999 0.9999 0.9999 0.9999 0.9999 0.9999 0.9999 0.9999 0.9999 
0.9999 0.9999 0.9999 0.9999 0.9999 0.9999 0.9999 0.9999 0.9999 0.9999 0.9999 0.9999 0.9999 0.9999 0.9999 0.9999 0.9999 0.9999 0.9999 0.9999 0.9999 
0.9999 0.9999 0.9999 0.9999 0.9999 0.9999 0.9999 0.9999 0.9999 0.9999 0.9999 0.9999 0.9999 0.9999 0.9999 0.9999 0.9999 0.9999 0.9999 0.9999 0.9999 
0.9999 0.9999 0.9999 0.9999 0.9999 0.9999 0.9999 0.9999 0.9999 0.9999 0.9999 0.9999 0.9999 0.9999 0.9999 0.9999 0.9999 0.9999 0.9999 0.9999 0.9999 
0.9999 0.9999 0.9999 0.9999 0.9999 0.9999 0.9999 0.9999 0.9999 0.9999 0.9999 0.9999 0.9999 0.9999 0.9999 0.9999 0.9999 0.9999 0.9999 0.9999 0.9999 
0.9999 0.9999 0.9999 0.9999 0.9999 0.9999 0.9999 0.9999 0.9999 0.9999 0.9999 0.9999 0.9999 0.9999 0.9999 0.9999 0.9999 0.9999 0.9999 0.9999 0.9999 
0.9999 0.9999 0.9999 0.9999 0.9999 0.9999 0.9999 0.9999 0.9999 0.9999 0.9999 0.9999 0.9999 0.9999 0.9999 0.9999 0.9999 0.9999 0.9999 0.9999 0.9999 
0.9999 0.9999 0.9999 0.9999 0.9999 0.9999 0.9999 0.9999 0.9999 0.9999 0.9999 0.9999 0.9999 0.9999 0.9999 0.9999 0.9999 0.9999 0.9999 0.9999 0.9999 
0.9999 0.9999 0.9999 0.9999 0.9999 0.9999 0.9999 0.9999 0.9999 0.9999 0.9999 0.9999 0.9999 0.9999 0.9999 0.9999 0.9999 0.9999 0.9999 0.9999 0.9999 
0.9999 0.9999 0.9999 0.9999 0.9999 0.9999 0.9999 0.9999 0.9999 0.9999 0.9999 0.9999 0.9999 0.9999 0.9999 0.9999 0.9999 0.9999 0.9999 0.9999 0.9999 
0.9999 0.9999 0.9999 0.9999 0.9999 0.9999 0.9999 0.9999 0.9999 0.9999 0.9999 0.9999 0.9999 0.9999 0.9999 0.9999 0.9999 0.9999 0.9999 0.9999 0.9999 
0.9999 0.9999 0.9999 0.9999 0.9999 0.9999 0.9999 0.9999 0.9999 0.9999 0.9999 0.9999 0.9999 0.9999 0.9999 0.9999 0.9999 0.9999 0.9999 0.9999 0.9999 
0.9999 0.9999 0.9999 0.9999 0.9999 0.9999 0.9999 0.9999 0.9999 0.9999 0.9999 0.9999 0.9999 0.9999 0.9999 0.9999 0.9999 0.9999 0.9999 0.9999 0.9999 
0.9999 0.9999 0.9999 0.9999 0.9999 0.9999 0.9999 0.9999 0.9999 0.9999 0.9999 0.9999 0.9999 0.9999 0.9999 0.9999 0.9999 0.9999 0.9999 0.9999 0.9999 
0.9999 0.9999 0.9999 0.9999 0.9999 0.9999 0.9999 0.9999 0.9999 0.9999 0.9999 0.9999 0.9999 0.9999 0.9999 0.9999 0.9999 0.9999 0.9999 0.9999 0.9999 
</DataArray>
</PointData>
</Piece>
</ImageData>
</VTKFile>
