<VTKFile type="ImageData">
<ImageData Origin="0 -10 0" Spacing="0.5 0.5 1" WholeExtent="0 20 0 40 0 0">
<Piece Extent="0 20 0 40 0 0">
<PointData>
<DataArray Name="f" NumberOfComponents="1" format="ascii" type="Float64">
9.974e-08 9.974e-08 9.974e-08 9.974e-08 9.974e-08 9.974e-08 9.974e-08 9.974e-08 9.974e-08 9.974e-08 9.974e-08 9.974e-08 9.974e-08 9.974e-08 9.974e-08 9.974e-08 9.974e-08 9.974e-08 9.974e-08 9.974e-08 9.974e-08 
6.171e-07 6.171e-07 6.171e-07 6.171e-07 6.171e-07 6.171e-07 6.171e-07 6.171e-07 6.171e-07 6.171e-07 6.171e-07 6.171e-07 6.171e-07 6.171e-07 6.171e-07 6.171e-07 6.171e-07 6.171e-07 6.171e-07 6.171e-07 6.171e-07 
3.376e-06 3.376e-06 3.376e-06 3.376e-06 3.376e-06 3.376e-06 3.376e-06 3.376e-06 3.376e-06 3.376e-06 3.376e-06 3.376e-06 3.376e-06 3.376e-06 3.376e-06 3.376e-06 3.376e-06 3.376e-06 3.376e-06 3.376e-06 3.376e-06 
1.638e-05 1.638e-05 1.638e-05 1.638e-05 1.638e-05 1.638e-05 1.638e-05 1.638e-05 1.638e-05 1.638e-05 1.638e-05 1.638e-05 1.638e-05 1.638e-05 1.638e-05 1.638e-05 1.638e-05 1.638e-05 1.638e-05 1.638e-05 1.638e-05 
7.055e-05 7.055e-05 7.055e-05 7.055e-05 7.055e-05 7.055e-05 7.055e-05 7.055e-05 7.055e-05 7.055e-05 7.055e-05 7.055e-05 7.055e-05 7.055e-05 7.055e-05 7.055e-05 7.055e-05 7.055e-05 7.055e-05 7.055e-05 7.055e-05 
0.0002703 0.0002703 0.0002703 0.0002703 0.0002703 0.0002703 0.0002703 0.0002703 0.0002703 0.0002703 0.0002703 0.0002703 0.0002703 0.0002703 0.0002703 0.0002703 0.0002703 0.0002703 0.0002703 0.0002703 0.0002703 
0.0009217 0.0009217 0.0009217 0.0009217 0.0009217 0.0009217 0.0009217 0.0009217 0.0009217 0.0009217 0.0009217 0.0009217 0.0009217 0.0009217 0.0009217 0.0009217 0.0009217 0.0009217 0.0009217 0.0009217 0.0009217 
0.002799 0.002799 0.002799 0.002799 0.002799 0.002799 0.002799 0.002799 0.002799 0.002799 0.002799 0.002799 0.002799 0.002799 0.002799 0.002799 0.002799 0.002799 0.002799 0.002799 0.002799 
0.00757 0.00757 0.00757 0.00757 0.00757 0.00757 0.00757 0.00757 0.00757 0.00757 0.00757 0.00757 0.00757 0.00757 0.00757 0.00757 0.00757 0.00757 0.00757 0.00757 0.00757 
0.01823 0.01823 0.01823 0.01823 0.01823 0.01823 0.01823 0.01823 0.01823 0.01823 0.01823 0.01823 0.01823 0.01823 0.01823 0.01823 0.01823 0.01823 0.01823 0.01823 0.01823 
0.03904 0.03904 0.03904 0.03904 0.03904 0.03904 0.03904 0.03904 0.03904 0.03904 0.03904 0.03904 0.03904 0.03904 0.03904 0.03904 0.03904 0.03904 0.03904 0.03904 0.03904 
0.07429 0.07429 0.07429 0.07429 0.07429 0.07429 0.07429 0.07429 0.07429 0.07429 0.07429 0.07429 0.07429 0.07429 0.07429 0.07429 0.07429 0.07429 0.07429 0.07429 0.07429 
0.1254 0.1254 0.1254 0.1254 0.1254 0.1254 0.1254 0.1254 0.1254 0.1254 0.1254 0.1254 0.1254 0.1254 0.1254 0.1254 0.1254 0.1254 0.1254 0.1254 0.1254 
0.1872 0.1872 0.1872 0.1872 0.1872 0.1872 0.1872 0.1872 0.1872 0.1872 0.1872 0.1872 0.1872 0.1872 0.1872 0.1872 0.1872 0.1872 0.1872 0.1872 0.1872 
0.2467 0.2467 0.2467 0.2467 0.2467 0.2467 0.2467 0.2467 0.2467 0.2467 0.2467 0.2467 0.2467 0.2467 0.2467 0.2467 0.2467 0.2467 0.2467 0.2467 0.2467 
0.2859 0.2859 0.2859 0.2859 0.2859 0.2859 0.2859 0.2859 0.2859 0.2859 0.2859 0.2859 0.2859 0.2859 0.2859 0.2859 0.2859 0.2859 0.2859 0.2859 0.2859 
0.2905 0.2905 0.2905 0.2905 0.2905 0.2905 0.2905 0.2905 0.2905 0.2905 0.2905 0.2905 0.2905 0.2905 0.2905 0.2905 0.2905 0.2905 0.2905 0.2905 0.2905 
0.2575 0.2575 0.2575 0.2575 0.2575 0.2575 0.2575 0.2575 0.2575 0.2575 0.2575 0.2575 0.2575 0.2575 0.2575 0.2575 0.2575 0.2575 0.2575 0.2575 0.2575 
0.1981 0.1981 0.1981 0.1981 0.1981 0.1981 0.1981 0.1981 0.1981 0.1981 0.1981 0.1981 0.1981 0.1981 0.1981 0.1981 0.1981 0.1981 0.1981 0.1981 0.1981 
0.1317 0.1317 0.1317 0.1317 0.1317 0.1317 0.1317 0.1317 0.1317 0.1317 0.1317 0.1317 0.1317 0.1317 0.1317 0.1317 0.1317 0.1317 0.1317 0.1317 0.1317 
0.07511 0.07511 0.07511 0.07511 0.07511 0.07511 0.07511 0.07511 0.07511 0.07511 0.07511 0.07511 0.07511 0.07511 0.07511 0.07511 0.07511 0.07511 0.07511 0.07511 0.07511 
0.03653 0.03653 0.03653 0.03653 0.03653 0.03653 0.03653 0.03653 0.03653 0.03653 0.03653 0.03653 0.03653 0.03653 0.03653 0.03653 0.03653 0.03653 0.03653 0.03653 0.03653 
0.01504 0.01504 0.01504 0.01504 0.01504 0.01504 0.01504 0.01504 0.01504 0.01504 0.01504 0.01504 0.01504 0.01504 0.01504 0.01504 0.01504 0.01504 0.01504 0.01504 0.01504 
0.005206 0.005206 0.005206 0.005206 0.005206 0.005206 0.005206 0.005206 0.005206 0.005206 0.005206 0.005206 0.005206 0.005206 0.005206 0.005206 0.005206 0.005206 0.005206 0.005206 0.005206 
0.001503 0.001503 0.001503 0.001503 0.001503 0.001503 0.001503 0.001503 0.001503 0.001503 0.001503 0.001503 0.001503 0.001503 0.001503 0.001503 0.001503 0.001503 0.001503 0.001503 0.001503 
0.0003589 0.0003589 0.0003589 0.0003589 0.0003589 0.0003589 0.0003589 0.0003589 0.0003589 0.0003589 0.0003589 0.0003589 0.0003589 0.0003589 0.0003589 0.0003589 0.0003589 0.0003589 0.0003589 0.0003589 0.0003589 
7.039e-05 7.039e-05 7.039e-05 7.039e-05 7.039e-05 7.039e-05 7.039e-05 7.039e-05 7.039e-05 7.039e-05 7.039e-05 7.039e-05 7.039e-05 7.039e-05 7.039e-05 7.039e-05 7.039e-05 7.039e-05 7.039e-05 7.039e-05 7.039e-05 
1.126e-05 1.126e-05 1.126e-05 1.126e-05 1.126e-05 1.126e-05 1.126e-05 1.126e-05 1.126e-05 1.126e-05 1.126e-05 1.126e-05 1.126e-05 1.126e-05 1.126e-05 1.126e-05 1.126e-05 1.126e-05 1.126e-05 1.126e-05 1.126e-05 
1.457e-06 1.457e-06 1.457e-06 1.457e-06 1.457e-06 1.457e-06 1.457e-06 1.457e-06 1.457e-06 1.457e-06 1.457e-06 1.457e-06 1.457e-06 1.457e-06 1.457e-06 1.457e-06 1.457e-06 1.457e-06 1.457e-06 1.457e-06 1.457e-06 
1.518e-07 1.518e-07 1.518e-07 1.518e-07 1.518e-07 1.518e-07 1.518e-07 1.518e-07 1.518e-07 1.518e-07 1.518e-07 1.518e-07 1.518e-07 1.518e-07 1.518e-07 1.518e-07 1.518e-07 1.518e-07 1.518e-07 1.518e-07 1.518e-07 
1.265e-08 1.265e-08 1.265e-08 1.265e-08 1.265e-08 1.265e-08 1.265e-08 1.265e-08 1.265e-08 1.265e-08 1.265e-08 1.265e-08 1.265e-08 1.265e-08 1.265e-08 1.265e-08 1.265e-08 1.265e-08 1.265e-08 1.265e-08 1.265e-08 
8.399e-10 8.399e-10 8.399e-10 8.399e-10 8.399e-10 8.399e-10 8.399e-10 8.399e-10 8.399e-10 8.399e-10 8.399e-10 8.399e-10 8.399e-10 8.399e-10 8.399e-10 8.399e-10 8.399e-10 8.399e-10 8.399e-10 8.399e-10 8.399e-10 
4.42e-11 4.42e-11 4.42e-11 4.42e-11 4.42e-11 4.42e-11 4.42e-11 4.42e-11 4.42e-11 4.42e-11 4.42e-11 4.42e-11 4.42e-11 4.42e-11 4.42e-11 4.42e-11 4.42e-11 4.42e-11 4.42e-11 4.42e-11 4.42e-11 
1.839e-12 1.839e-12 1.839e-12 1.839e-12 1.839e-12 1.839e-12 1.839e-12 1.839e-12 1.839e-12 1.839e-12 1.839e-12 1.839e-12 1.839e-12 1.839e-12 1.839e-12 1.839e-12 1.839e-12 1.839e-12 1.839e-12 1.839e-12 1.839e-12 
6.703e-14 6.703e-14 6.703e-14 6.703e-14 6.703e-14 6.703e-14 6.703e-14 6.703e-14 6.703e-14 6.703e-14 6.703e-14 6.703e-14 6.703e-14 6.703e-14 6.703e-14 6.703e-14 6.703e-14 6.703e-14 6.703e-14 6.703e-14 6.703e-14 
1.124e-13 1.124e-13 1.124e-13 1.124e-13 1.124e-13 1.124e-13 1.124e-13 1.124e-13 1.124e-13 1.124e-13 1.124e-13 1.124e-13 1.124e-13 1.124e-13 1.124e-13 1.124e-13 1.124e-13 1.124e-13 1.124e-13 1.124e-13 1.124e-13 
1.55e-12 1.55e-12 1.55e-12 1.55e-12 1.55e-12 1.55e-12 1.55e-12 1.55e-12 1.55e-12 1.55e-12 1.55e-12 1.55e-12 1.55e-12 1.55e-12 1.55e-12 1.55e-12 1.55e-12 1.55e-12 1.55e-12 1.55e-12 1.55e-12 
1.869e-11 1.869e-11 1.869e-11 1.869e-11 1.869e-11 1.869e-11 1.869e-11 1.869e-11 1.869e-11 1.869e-11 1.869e-11 1.869e-11 1.869e-11 1.869e-11 1.869e-11 1.869e-11 1.869e-11 1.869e-11 1.869e-11 1.869e-11 1.869e-11 
1.954e-10 1.954e-10 1.954e-10 1.954e-10 1.954e-10 1.954e-10 1.954e-10 1.954e-10 1.954e-10 1.954e-10 1.954e-10 1.954e-10 1.954e-10 1.954e-10 1.954e-10 1.954e-10 1.954e-10 1.954e-10 1.954e-10 1.954e-10 1.954e-10 
1.781e-09 1.781e-09 1.781e-09 1.781e-09 1.781e-09 1.781e-09 1.781e-09 1.781e-09 1.781e-09 1.781e-09 1.781e-09 1.781e-09 1.781e-09 1.781e-09 1.781e-09 1.781e-09 1.781e-09 1.781e-09 1.781e-09 1.781e-09 1.781e-09 
1.422e-08 1.422e-08 1.422e-08 1.422e-08 1.422e-08 1.422e-08 1.422e-08 1.422e-08 1.422e-08 1.422e-08 1.422e-08 1.422e-08 1.422e-08 1.422e-08 1.422e-08 1.422e-08 1.422e-08 1.422e-08 1.422e-08 1.422e-08 1.422e-08 
</DataArray>
<DataArray Name="E" NumberOfComponents="1" format="ascii" type="Float64">
1 1 1 1 1 1 1 1 1 1 1 1 1 1 1 1 1 1 1 1 1 
1 1 1 1 1 1 1 1 1 1 1 1 1 1 1 1 1 1 1 1 1 
1 1 1 1 1 1 1 1 1 1 1 1 1 1 1 1 1 1 1 1 1 
1 1 1 1 1 1 1 1 1 1 1 1 1 1 1 1 1 1 1 1 1 
1 1 1 1 1 1 1 1 1 1 1 1 1 1 1 1 1 1 1 1 1 
1 1 1 1 1 1 1 1 1 1 1 1 1 1 1 1 1 1 1 1 1 
1 1 1 1 1 1 1 1 1 1 1 1 1 1 1 1 1 1 1 1 1 
1 1 1 1 1 1 1 1 1 1 1 1 1 1 1 1 1 1 1 1 1 
1 1 1 1 1 1 1 1 1 1 1 1 1 1 1 1 1 1 1 1 1 
1 1 1 1 1 1 1 1 1 1 1 1 1 1 1 1 1 1 1 1 1 
1 1 1 1 1 1 1 1 1 1 1 1 1 1 1 1 1 1 1 1 1 
1 1 1 1 1 1 1 1 1 1 1 1 1 1 1 1 1 1 1 1 1 
1 1 1 1 1 1 1 1 1 1 1 1 1 1 1 1 1 1 1 1 1 
1 1 1 1 1 1 1 1 1 1 1 1 1 1 1 1 1 1 1 1 1 
1 1 1 1 1 1 1 1 1 1 1 1 1 1 1 1 1 1 1 1 1 
1 1 1 1 1 1 1 1 1 1 1 1 1 1 1 1 1 1 1 1 1 
1 1 1 1 1 1 1 1 1 1 1 1 1 1 1 1 1 1 1 1 1 
1 1 1 1 1 1 1 1 1 1 1 1 1 1 1 1 1 1 1 1 1 
1 1 1 1 1 1 1 1 1 1 1 1 1 1 1 1 1 1 1 1 1 
1 1 1 1 1 1 1 1 1 1 1 1 1 1 1 1 1 1 1 1 1 
1 1 1 1 1 1 1 1 1 1 1 1 1 1 1 1 1 1 1 1 1 
1 1 1 1 1 1 1 1 1 1 1 1 1 1 1 1 1 1 1 1 1 
1 1 1 1 1 1 1 1 1 1 1 1 1 1 1 1 1 1 1 1 1 
1 1 1 1 1 1 1 1 1 1 1 1 1 1 1 1 1 1 1 1 1 
1 1 1 1 1 1 1 1 1 1 1 1 1 1 1 1 1 1 1 1 1 
1 1 1 1 1 1 1 1 1 1 1 1 1 1 1 1 1 1 1 1 1 
1 1 1 1 1 1 1 1 1 1 1 1 1 1 1 1 1 1 1 1 1 
1 1 1 1 1 1 1 1 1 1 1 1 1 1 1 1 1 1 1 1 1 
1 1 1 1 1 1 1 1 1 1 1 1 1 1 1 1 1 1 1 1 1 
1 1 1 1 1 1 1 1 1 1 1 1 1 1 1 1 1 1 1 1 1 
1 1 1 1 1 1 1 1 1 1 1 1 1 1 1 1 1 1 1 1 1 
1 1 1 1 1 1 1 1 1 1 1 1 1 1 1 1 1 1 1 1 1 
1 1 1 1 1 1 1 1 1 1 1 1 1 1 1 1 1 1 1 1 1 
1 1 1 1 1 1 1 1 1 1 1 1 1 1 1 1 1 1 1 1 1 
1 1 1 1 1 1 1 1 1 1 1 1 1 1 1 1 1 1 1 1 1 
1 1 1 1 1 1 1 1 1 1 1 1 1 1 1 1 1 1 1 1 1 
1 1 1 1 1 1 1 1 1 1 1 1 1 1 1 1 1 1 1 1 1 
1 1 1 1 1 1 1 1 1 1 1 1 1 1 1 1 1 1 1 1 1 
1 1 1 1 1 1 1 1 1 1 1 1 1 1 1 1 1 1 1 1 1 
1 1 1 1 1 1 1 1 1 1 1 1 1 1 1 1 1 1 1 1 1 
1 1 1 1 1 1 1 1 1 1 1 1 1 1 1 1 1 1 1 1 1 
</DataArray>
<DataArray Name="ne" NumberOfComponents="1" format="ascii" type="Float64">
1 1 1 1 1 1 1 1 1 1 1 1 1 1 1 1 1 1 1 1 1 
1 1 1 1 1 1 1 1 1 1 1 1 1 1 1 1 1 1 1 1 1 
1 1 1 1 1 1 1 1 1 1 1 1 1 1 1 1 1 1 1 1 1 
1 1 1 1 1 1 1 1 1 1 1 1 1 1 1 1 1 1 1 1 1 
1 1 1 1 1 1 1 1 1 1 1 1 1 1 1 1 1 1 1 1 1 
1 1 1 1 1 1 1 1 1 1 1 1 1 1 1 1 1 1 1 1 1 
1 1 1 1 1 1 1 1 1 1 1 1 1 1 1 1 1 1 1 1 1 
1 1 1 1 1 1 1 1 1 1 1 1 1 1 1 1 1 1 1 1 1 
1 1 1 1 1 1 1 1 1 1 1 1 1 1 1 1 1 1 1 1 1 
1 1 1 1 1 1 1 1 1 1 1 1 1 1 1 1 1 1 1 1 1 
1 1 1 1 1 1 1 1 1 1 1 1 1 1 1 1 1 1 1 1 1 
1 1 1 1 1 1 1 1 1 1 1 1 1 1 1 1 1 1 1 1 1 
1 1 1 1 1 1 1 1 1 1 1 1 1 1 1 1 1 1 1 1 1 
1 1 1 1 1 1 1 1 1 1 1 1 1 1 1 1 1 1 1 1 1 
1 1 1 1 1 1 1 1 1 1 1 1 1 1 1 1 1 1 1 1 1 
1 1 1 1 1 1 1 1 1 1 1 1 1 1 1 1 1 1 1 1 1 
1 1 1 1 1 1 1 1 1 1 1 1 1 1 1 1 1 1 1 1 1 
1 1 1 1 1 1 1 1 1 1 1 1 1 1 1 1 1 1 1 1 1 
1 1 1 1 1 1 1 1 1 1 1 1 1 1 1 1 1 1 1 1 1 
1 1 1 1 1 1 1 1 1 1 1 1 1 1 1 1 1 1 1 1 1 
1 1 1 1 1 1 1 1 1 1 1 1 1 1 1 1 1 1 1 1 1 
1 1 1 1 1 1 1 1 1 1 1 1 1 1 1 1 1 1 1 1 1 
1 1 1 1 1 1 1 1 1 1 1 1 1 1 1 1 1 1 1 1 1 
1 1 1 1 1 1 1 1 1 1 1 1 1 1 1 1 1 1 1 1 1 
1 1 1 1 1 1 1 1 1 1 1 1 1 1 1 1 1 1 1 1 1 
1 1 1 1 1 1 1 1 1 1 1 1 1 1 1 1 1 1 1 1 1 
1 1 1 1 1 1 1 1 1 1 1 1 1 1 1 1 1 1 1 1 1 
1 1 1 1 1 1 1 1 1 1 1 1 1 1 1 1 1 1 1 1 1 
1 1 1 1 1 1 1 1 1 1 1 1 1 1 1 1 1 1 1 1 1 
1 1 1 1 1 1 1 1 1 1 1 1 1 1 1 1 1 1 1 1 1 
1 1 1 1 1 1 1 1 1 1 1 1 1 1 1 1 1 1 1 1 1 
1 1 1 1 1 1 1 1 1 1 1 1 1 1 1 1 1 1 1 1 1 
1 1 1 1 1 1 1 1 1 1 1 1 1 1 1 1 1 1 1 1 1 
1 1 1 1 1 1 1 1 1 1 1 1 1 1 1 1 1 1 1 1 1 
1 1 1 1 1 1 1 1 1 1 1 1 1 1 1 1 1 1 1 1 1 
1 1 1 1 1 1 1 1 1 1 1 1 1 1 1 1 1 1 1 1 1 
1 1 1 1 1 1 1 1 1 1 1 1 1 1 1 1 1 1 1 1 1 
1 1 1 1 1 1 1 1 1 1 1 1 1 1 1 1 1 1 1 1 1 
1 1 1 1 1 1 1 1 1 1 1 1 1 1 1 1 1 1 1 1 1 
1 1 1 1 1 1 1 1 1 1 1 1 1 1 1 1 1 1 1 1 1 
1 1 1 1 1 1 1 1 1 1 1 1 1 1 1 1 1 1 1 1 1 
</DataArray>
</PointData>
</Piece>
</ImageData>
</VTKFile>
