<VTKFile type="ImageData">
<ImageData Origin="0 -10 0" Spacing="0.5 0.5 1" WholeExtent="0 20 0 40 0 0">
<Piece Extent="0 20 0 40 0 0">
<PointData>
<DataArray Name="f" NumberOfComponents="1" format="ascii" type="Float64">
0.06594 0.06594 0.06594 0.06593 0.06593 0.06593 0.06594 0.06594 0.06594 0.06594 0.06594 0.06594 0.06594 0.06595 0.06595 0.06595 0.06595 0.06595 0.06596 0.06595 0.06594 
0.04837 0.04837 0.04837 0.04836 0.04836 0.04836 0.04836 0.04837 0.04837 0.04837 0.04837 0.04837 0.04837 0.04837 0.04837 0.04838 0.04838 0.04838 0.04838 0.04838 0.04837 
0.03392 0.03392 0.03392 0.03392 0.03392 0.03392 0.03392 0.03392 0.03392 0.03392 0.03392 0.03392 0.03392 0.03393 0.03393 0.03393 0.03393 0.03393 0.03393 0.03393 0.03392 
0.02273 0.02273 0.02273 0.02274 0.02274 0.02274 0.02274 0.02274 0.02274 0.02274 0.02274 0.02274 0.02274 0.02274 0.02274 0.02275 0.02275 0.02274 0.02274 0.02274 0.02273 
0.01456 0.01456 0.01456 0.01456 0.01456 0.01456 0.01457 0.01457 0.01457 0.01457 0.01457 0.01457 0.01457 0.01457 0.01457 0.01457 0.01457 0.01457 0.01457 0.01457 0.01456 
0.008912 0.008912 0.008913 0.008913 0.008913 0.008914 0.008914 0.008915 0.008915 0.008916 0.008916 0.008917 0.008917 0.008917 0.008918 0.008917 0.008917 0.008917 0.008915 0.008916 0.008912 
0.005209 0.005209 0.00521 0.00521 0.00521 0.00521 0.005211 0.005211 0.005211 0.005212 0.005212 0.005212 0.005212 0.005212 0.005212 0.005212 0.005212 0.005212 0.005211 0.005211 0.005209 
0.002907 0.002907 0.002907 0.002908 0.002908 0.002908 0.002908 0.002908 0.002909 0.002909 0.002909 0.002909 0.002909 0.002909 0.002909 0.002909 0.002909 0.002909 0.002908 0.002908 0.002907 
0.001549 0.001549 0.001549 0.001549 0.001549 0.001549 0.001549 0.001549 0.001549 0.001549 0.00155 0.00155 0.00155 0.00155 0.00155 0.00155 0.00155 0.00155 0.001549 0.001549 0.001549 
0.0007872 0.0007872 0.0007872 0.0007873 0.0007873 0.0007874 0.0007875 0.0007875 0.0007875 0.0007876 0.0007876 0.0007877 0.0007877 0.0007877 0.0007877 0.0007878 0.0007877 0.0007877 0.0007876 0.0007875 0.0007872 
0.0003818 0.0003818 0.0003819 0.0003819 0.0003819 0.0003819 0.000382 0.000382 0.000382 0.000382 0.000382 0.0003821 0.0003821 0.0003821 0.0003821 0.0003821 0.0003821 0.0003821 0.000382 0.000382 0.0003818 
0.0001772 0.0001772 0.0001772 0.0001772 0.0001772 0.0001772 0.0001772 0.0001773 0.0001773 0.0001773 0.0001773 0.0001773 0.0001773 0.0001773 0.0001773 0.0001773 0.0001773 0.0001773 0.0001773 0.0001773 0.0001772 
8.006e-05 8.006e-05 8.006e-05 8.007e-05 8.008e-05 8.008e-05 8.009e-05 8.009e-05 8.01e-05 8.01e-05 8.011e-05 8.011e-05 8.012e-05 8.012e-05 8.012e-05 8.013e-05 8.013e-05 8.012e-05 8.011e-05 8.01e-05 8.006e-05 
3.9e-05 3.899e-05 3.899e-05 3.9e-05 3.9e-05 3.9e-05 3.9e-05 3.901e-05 3.901e-05 3.901e-05 3.901e-05 3.901e-05 3.901e-05 3.902e-05 3.902e-05 3.902e-05 3.902e-05 3.902e-05 3.901e-05 3.901e-05 3.9e-05 
2.931e-05 2.931e-05 2.931e-05 2.931e-05 2.931e-05 2.931e-05 2.931e-05 2.931e-05 2.931e-05 2.931e-05 2.931e-05 2.931e-05 2.931e-05 2.931e-05 2.931e-05 2.931e-05 2.931e-05 2.931e-05 2.931e-05 2.931e-05 2.931e-05 
4.444e-05 4.445e-05 4.445e-05 4.445e-05 4.444e-05 4.444e-05 4.444e-05 4.443e-05 4.443e-05 4.442e-05 4.442e-05 4.442e-05 4.442e-05 4.441e-05 4.441e-05 4.441e-05 4.441e-05 4.441e-05 4.441e-05 4.442e-05 4.444e-05 
9.321e-05 9.324e-05 9.323e-05 9.322e-05 9.321e-05 9.32e-05 9.319e-05 9.319e-05 9.318e-05 9.317e-05 9.316e-05 9.315e-05 9.315e-05 9.314e-05 9.314e-05 9.313e-05 9.313e-05 9.313e-05 9.314e-05 9.315e-05 9.321e-05 
0.0002028 0.0002029 0.0002029 0.0002029 0.0002028 0.0002028 0.0002028 0.0002028 0.0002028 0.0002027 0.0002027 0.0002027 0.0002027 0.0002027 0.0002027 0.0002027 0.0002027 0.0002027 0.0002027 0.0002027 0.0002028 
0.0004277 0.0004279 0.0004278 0.0004278 0.0004278 0.0004277 0.0004277 0.0004277 0.0004276 0.0004276 0.0004276 0.0004275 0.0004275 0.0004275 0.0004274 0.0004274 0.0004274 0.0004274 0.0004274 0.0004275 0.0004277 
0.0008643 0.0008646 0.0008645 0.0008645 0.0008644 0.0008643 0.0008643 0.0008642 0.0008641 0.000864 0.000864 0.0008639 0.0008639 0.0008638 0.0008637 0.0008637 0.0008637 0.0008637 0.0008637 0.0008638 0.0008643 
0.001671 0.001671 0.001671 0.001671 0.001671 0.001671 0.001671 0.001671 0.00167 0.00167 0.00167 0.00167 0.00167 0.00167 0.00167 0.00167 0.00167 0.00167 0.00167 0.00167 0.001671 
0.003089 0.00309 0.00309 0.00309 0.003089 0.003089 0.003089 0.003089 0.003089 0.003088 0.003088 0.003088 0.003088 0.003088 0.003087 0.003087 0.003087 0.003087 0.003087 0.003087 0.003089 
0.005463 0.005465 0.005465 0.005465 0.005465 0.005464 0.005464 0.005463 0.005463 0.005463 0.005462 0.005462 0.005462 0.005461 0.005461 0.005461 0.00546 0.00546 0.00546 0.00546 0.005463 
0.009244 0.009248 0.009248 0.009248 0.009247 0.009247 0.009246 0.009245 0.009245 0.009244 0.009244 0.009243 0.009243 0.009242 0.009242 0.009241 0.009241 0.00924 0.00924 0.00924 0.009244 
0.01497 0.01497 0.01497 0.01497 0.01497 0.01497 0.01497 0.01497 0.01497 0.01497 0.01497 0.01497 0.01497 0.01497 0.01496 0.01496 0.01496 0.01496 0.01496 0.01496 0.01497 
0.02319 0.0232 0.0232 0.0232 0.0232 0.0232 0.0232 0.0232 0.0232 0.02319 0.02319 0.02319 0.02319 0.02319 0.02319 0.02319 0.02319 0.02319 0.02319 0.02318 0.02319 
0.03439 0.0344 0.03441 0.03441 0.0344 0.0344 0.0344 0.0344 0.0344 0.0344 0.0344 0.03439 0.03439 0.03439 0.03439 0.03439 0.03439 0.03439 0.03438 0.03438 0.03439 
0.04881 0.04883 0.04883 0.04883 0.04883 0.04883 0.04883 0.04883 0.04882 0.04882 0.04882 0.04882 0.04882 0.04881 0.04881 0.04881 0.04881 0.04881 0.04881 0.0488 0.04881 
0.06631 0.06633 0.06633 0.06634 0.06634 0.06633 0.06633 0.06633 0.06633 0.06633 0.06632 0.06632 0.06632 0.06632 0.06631 0.06631 0.06631 0.06631 0.06631 0.0663 0.06631 
0.08623 0.08625 0.08625 0.08626 0.08626 0.08626 0.08626 0.08625 0.08625 0.08625 0.08625 0.08624 0.08624 0.08624 0.08624 0.08623 0.08623 0.08623 0.08623 0.08622 0.08623 
0.1073 0.1074 0.1074 0.1074 0.1074 0.1074 0.1074 0.1074 0.1074 0.1074 0.1074 0.1074 0.1073 0.1073 0.1073 0.1073 0.1073 0.1073 0.1073 0.1073 0.1073 
0.1279 0.1279 0.1279 0.1279 0.1279 0.1279 0.1279 0.1279 0.1279 0.1279 0.1279 0.1279 0.1279 0.1279 0.1279 0.1279 0.1279 0.1279 0.1279 0.1279 0.1279 
0.1459 0.1459 0.1459 0.1459 0.1459 0.1459 0.1459 0.1459 0.1459 0.1459 0.1459 0.1459 0.1459 0.1459 0.1459 0.1459 0.1459 0.1459 0.1459 0.1459 0.1459 
0.1592 0.1593 0.1593 0.1593 0.1593 0.1593 0.1593 0.1593 0.1593 0.1593 0.1593 0.1593 0.1593 0.1593 0.1592 0.1592 0.1592 0.1592 0.1592 0.1592 0.1592 
0.1664 0.1664 0.1664 0.1664 0.1664 0.1664 0.1664 0.1664 0.1664 0.1664 0.1664 0.1664 0.1664 0.1664 0.1664 0.1664 0.1664 0.1664 0.1664 0.1664 0.1664 
0.1664 0.1664 0.1664 0.1664 0.1664 0.1664 0.1664 0.1664 0.1664 0.1664 0.1664 0.1664 0.1664 0.1664 0.1664 0.1664 0.1664 0.1664 0.1664 0.1664 0.1664 
0.1593 0.1593 0.1593 0.1593 0.1593 0.1593 0.1593 0.1593 0.1593 0.1593 0.1593 0.1593 0.1593 0.1593 0.1593 0.1593 0.1593 0.1593 0.1593 0.1593 0.1593 
0.1459 0.1459 0.1459 0.1459 0.1459 0.1459 0.1459 0.1459 0.1459 0.1459 0.1459 0.1459 0.1459 0.1459 0.1459 0.1459 0.1459 0.1459 0.1459 0.1459 0.1459 
0.1279 0.1278 0.1278 0.1278 0.1278 0.1278 0.1278 0.1278 0.1278 0.1278 0.1278 0.1278 0.1278 0.1278 0.1278 0.1278 0.1278 0.1278 0.1279 0.1279 0.1279 
0.1072 0.1072 0.1072 0.1072 0.1072 0.1072 0.1072 0.1072 0.1072 0.1072 0.1072 0.1072 0.1072 0.1072 0.1072 0.1072 0.1072 0.1072 0.1072 0.1072 0.1072 
0.08598 0.08597 0.08596 0.08596 0.08596 0.08596 0.08596 0.08596 0.08596 0.08596 0.08596 0.08596 0.08596 0.08596 0.08597 0.08597 0.08597 0.08597 0.08597 0.08598 0.08598 
</DataArray>
<DataArray Name="E" NumberOfComponents="1" format="ascii" type="Float64">
-10.59 -10.59 -10.59 -10.59 -10.59 -10.59 -10.59 -10.59 -10.59 -10.59 -10.59 -10.59 -10.59 -10.59 -10.59 -10.59 -10.59 -10.59 -10.59 -10.59 -10.59 
-10.59 -10.59 -10.59 -10.59 -10.59 -10.59 -10.59 -10.59 -10.59 -10.59 -10.59 -10.59 -10.59 -10.59 -10.59 -10.59 -10.59 -10.59 -10.59 -10.59 -10.59 
-10.59 -10.59 -10.59 -10.59 -10.59 -10.59 -10.59 -10.59 -10.59 -10.59 -10.59 -10.59 -10.59 -10.59 -10.59 -10.59 -10.59 -10.59 -10.59 -10.59 -10.59 
-10.59 -10.59 -10.59 -10.59 -10.59 -10.59 -10.59 -10.59 -10.59 -10.59 -10.59 -10.59 -10.59 -10.59 -10.59 -10.59 -10.59 -10.59 -10.59 -10.59 -10.59 
-10.59 -10.59 -10.59 -10.59 -10.59 -10.59 -10.59 -10.59 -10.59 -10.59 -10.59 -10.59 -10.59 -10.59 -10.59 -10.59 -10.59 -10.59 -10.59 -10.59 -10.59 
-10.59 -10.59 -10.59 -10.59 -10.59 -10.59 -10.59 -10.59 -10.59 -10.59 -10.59 -10.59 -10.59 -10.59 -10.59 -10.59 -10.59 -10.59 -10.59 -10.59 -10.59 
-10.59 -10.59 -10.59 -10.59 -10.59 -10.59 -10.59 -10.59 -10.59 -10.59 -10.59 -10.59 -10.59 -10.59 -10.59 -10.59 -10.59 -10.59 -10.59 -10.59 -10.59 
-10.59 -10.59 -10.59 -10.59 -10.59 -10.59 -10.59 -10.59 -10.59 -10.59 -10.59 -10.59 -10.59 -10.59 -10.59 -10.59 -10.59 -10.59 -10.59 -10.59 -10.59 
-10.59 -10.59 -10.59 -10.59 -10.59 -10.59 -10.59 -10.59 -10.59 -10.59 -10.59 -10.59 -10.59 -10.59 -10.59 -10.59 -10.59 -10.59 -10.59 -10.59 -10.59 
-10.59 -10.59 -10.59 -10.59 -10.59 -10.59 -10.59 -10.59 -10.59 -10.59 -10.59 -10.59 -10.59 -10.59 -10.59 -10.59 -10.59 -10.59 -10.59 -10.59 -10.59 
-10.59 -10.59 -10.59 -10.59 -10.59 -10.59 -10.59 -10.59 -10.59 -10.59 -10.59 -10.59 -10.59 -10.59 -10.59 -10.59 -10.59 -10.59 -10.59 -10.59 -10.59 
-10.59 -10.59 -10.59 -10.59 -10.59 -10.59 -10.59 -10.59 -10.59 -10.59 -10.59 -10.59 -10.59 -10.59 -10.59 -10.59 -10.59 -10.59 -10.59 -10.59 -10.59 
-10.59 -10.59 -10.59 -10.59 -10.59 -10.59 -10.59 -10.59 -10.59 -10.59 -10.59 -10.59 -10.59 -10.59 -10.59 -10.59 -10.59 -10.59 -10.59 -10.59 -10.59 
-10.59 -10.59 -10.59 -10.59 -10.59 -10.59 -10.59 -10.59 -10.59 -10.59 -10.59 -10.59 -10.59 -10.59 -10.59 -10.59 -10.59 -10.59 -10.59 -10.59 -10.59 
-10.59 -10.59 -10.59 -10.59 -10.59 -10.59 -10.59 -10.59 -10.59 -10.59 -10.59 -10.59 -10.59 -10.59 -10.59 -10.59 -10.59 -10.59 -10.59 -10.59 -10.59 
-10.59 -10.59 -10.59 -10.59 -10.59 -10.59 -10.59 -10.59 -10.59 -10.59 -10.59 -10.59 -10.59 -10.59 -10.59 -10.59 -10.59 -10.59 -10.59 -10.59 -10.59 
-10.59 -10.59 -10.59 -10.59 -10.59 -10.59 -10.59 -10.59 -10.59 -10.59 -10.59 -10.59 -10.59 -10.59 -10.59 -10.59 -10.59 -10.59 -10.59 -10.59 -10.59 
-10.59 -10.59 -10.59 -10.59 -10.59 -10.59 -10.59 -10.59 -10.59 -10.59 -10.59 -10.59 -10.59 -10.59 -10.59 -10.59 -10.59 -10.59 -10.59 -10.59 -10.59 
-10.59 -10.59 -10.59 -10.59 -10.59 -10.59 -10.59 -10.59 -10.59 -10.59 -10.59 -10.59 -10.59 -10.59 -10.59 -10.59 -10.59 -10.59 -10.59 -10.59 -10.59 
-10.59 -10.59 -10.59 -10.59 -10.59 -10.59 -10.59 -10.59 -10.59 -10.59 -10.59 -10.59 -10.59 -10.59 -10.59 -10.59 -10.59 -10.59 -10.59 -10.59 -10.59 
-10.59 -10.59 -10.59 -10.59 -10.59 -10.59 -10.59 -10.59 -10.59 -10.59 -10.59 -10.59 -10.59 -10.59 -10.59 -10.59 -10.59 -10.59 -10.59 -10.59 -10.59 
-10.59 -10.59 -10.59 -10.59 -10.59 -10.59 -10.59 -10.59 -10.59 -10.59 -10.59 -10.59 -10.59 -10.59 -10.59 -10.59 -10.59 -10.59 -10.59 -10.59 -10.59 
-10.59 -10.59 -10.59 -10.59 -10.59 -10.59 -10.59 -10.59 -10.59 -10.59 -10.59 -10.59 -10.59 -10.59 -10.59 -10.59 -10.59 -10.59 -10.59 -10.59 -10.59 
-10.59 -10.59 -10.59 -10.59 -10.59 -10.59 -10.59 -10.59 -10.59 -10.59 -10.59 -10.59 -10.59 -10.59 -10.59 -10.59 -10.59 -10.59 -10.59 -10.59 -10.59 
-10.59 -10.59 -10.59 -10.59 -10.59 -10.59 -10.59 -10.59 -10.59 -10.59 -10.59 -10.59 -10.59 -10.59 -10.59 -10.59 -10.59 -10.59 -10.59 -10.59 -10.59 
-10.59 -10.59 -10.59 -10.59 -10.59 -10.59 -10.59 -10.59 -10.59 -10.59 -10.59 -10.59 -10.59 -10.59 -10.59 -10.59 -10.59 -10.59 -10.59 -10.59 -10.59 
-10.59 -10.59 -10.59 -10.59 -10.59 -10.59 -10.59 -10.59 -10.59 -10.59 -10.59 -10.59 -10.59 -10.59 -10.59 -10.59 -10.59 -10.59 -10.59 -10.59 -10.59 
-10.59 -10.59 -10.59 -10.59 -10.59 -10.59 -10.59 -10.59 -10.59 -10.59 -10.59 -10.59 -10.59 -10.59 -10.59 -10.59 -10.59 -10.59 -10.59 -10.59 -10.59 
-10.59 -10.59 -10.59 -10.59 -10.59 -10.59 -10.59 -10.59 -10.59 -10.59 -10.59 -10.59 -10.59 -10.59 -10.59 -10.59 -10.59 -10.59 -10.59 -10.59 -10.59 
-10.59 -10.59 -10.59 -10.59 -10.59 -10.59 -10.59 -10.59 -10.59 -10.59 -10.59 -10.59 -10.59 -10.59 -10.59 -10.59 -10.59 -10.59 -10.59 -10.59 -10.59 
-10.59 -10.59 -10.59 -10.59 -10.59 -10.59 -10.59 -10.59 -10.59 -10.59 -10.59 -10.59 -10.59 -10.59 -10.59 -10.59 -10.59 -10.59 -10.59 -10.59 -10.59 
-10.59 -10.59 -10.59 -10.59 -10.59 -10.59 -10.59 -10.59 -10.59 -10.59 -10.59 -10.59 -10.59 -10.59 -10.59 -10.59 -10.59 -10.59 -10.59 -10.59 -10.59 
-10.59 -10.59 -10.59 -10.59 -10.59 -10.59 -10.59 -10.59 -10.59 -10.59 -10.59 -10.59 -10.59 -10.59 -10.59 -10.59 -10.59 -10.59 -10.59 -10.59 -10.59 
-10.59 -10.59 -10.59 -10.59 -10.59 -10.59 -10.59 -10.59 -10.59 -10.59 -10.59 -10.59 -10.59 -10.59 -10.59 -10.59 -10.59 -10.59 -10.59 -10.59 -10.59 
-10.59 -10.59 -10.59 -10.59 -10.59 -10.59 -10.59 -10.59 -10.59 -10.59 -10.59 -10.59 -10.59 -10.59 -10.59 -10.59 -10.59 -10.59 -10.59 -10.59 -10.59 
-10.59 -10.59 -10.59 -10.59 -10.59 -10.59 -10.59 -10.59 -10.59 -10.59 -10.59 -10.59 -10.59 -10.59 -10.59 -10.59 -10.59 -10.59 -10.59 -10.59 -10.59 
-10.59 -10.59 -10.59 -10.59 -10.59 -10.59 -10.59 -10.59 -10.59 -10.59 -10.59 -10.59 -10.59 -10.59 -10.59 -10.59 -10.59 -10.59 -10.59 -10.59 -10.59 
-10.59 -10.59 -10.59 -10.59 -10.59 -10.59 -10.59 -10.59 -10.59 -10.59 -10.59 -10.59 -10.59 -10.59 -10.59 -10.59 -10.59 -10.59 -10.59 -10.59 -10.59 
-10.59 -10.59 -10.59 -10.59 -10.59 -10.59 -10.59 -10.59 -10.59 -10.59 -10.59 -10.59 -10.59 -10.59 -10.59 -10.59 -10.59 -10.59 -10.59 -10.59 -10.59 
-10.59 -10.59 -10.59 -10.59 -10.59 -10.59 -10.59 -10.59 -10.59 -10.59 -10.59 -10.59 -10.59 -10.59 -10.59 -10.59 -10.59 -10.59 -10.59 -10.59 -10.59 
-10.59 -10.59 -10.59 -10.59 -10.59 -10.59 -10.59 -10.59 -10.59 -10.59 -10.59 -10.59 -10.59 -10.59 -10.59 -10.59 -10.59 -10.59 -10.59 -10.59 -10.59 
</DataArray>
<DataArray Name="ne" NumberOfComponents="1" format="ascii" type="Float64">
0.9839 0.984 0.984 0.984 0.984 0.984 0.984 0.984 0.9839 0.9839 0.9839 0.9839 0.9839 0.9839 0.9839 0.9839 0.9839 0.9839 0.9839 0.9839 0.9839 
0.9839 0.984 0.984 0.984 0.984 0.984 0.984 0.984 0.9839 0.9839 0.9839 0.9839 0.9839 0.9839 0.9839 0.9839 0.9839 0.9839 0.9839 0.9839 0.9839 
0.9839 0.984 0.984 0.984 0.984 0.984 0.984 0.984 0.9839 0.9839 0.9839 0.9839 0.9839 0.9839 0.9839 0.9839 0.9839 0.9839 0.9839 0.9839 0.9839 
0.9839 0.984 0.984 0.984 0.984 0.984 0.984 0.984 0.9839 0.9839 0.9839 0.9839 0.9839 0.9839 0.9839 0.9839 0.9839 0.9839 0.9839 0.9839 0.9839 
0.9839 0.984 0.984 0.984 0.984 0.984 0.984 0.984 0.9839 0.9839 0.9839 0.9839 0.9839 0.9839 0.9839 0.9839 0.9839 0.9839 0.9839 0.9839 0.9839 
0.9839 0.984 0.984 0.984 0.984 0.984 0.984 0.984 0.9839 0.9839 0.9839 0.9839 0.9839 0.9839 0.9839 0.9839 0.9839 0.9839 0.9839 0.9839 0.9839 
0.9839 0.984 0.984 0.984 0.984 0.984 0.984 0.984 0.9839 0.9839 0.9839 0.9839 0.9839 0.9839 0.9839 0.9839 0.9839 0.9839 0.9839 0.9839 0.9839 
0.9839 0.984 0.984 0.984 0.984 0.984 0.984 0.984 0.9839 0.9839 0.9839 0.9839 0.9839 0.9839 0.9839 0.9839 0.9839 0.9839 0.9839 0.9839 0.9839 
0.9839 0.984 0.984 0.984 0.984 0.984 0.984 0.984 0.9839 0.9839 0.9839 0.9839 0.9839 0.9839 0.9839 0.9839 0.9839 0.9839 0.9839 0.9839 0.9839 
0.9839 0.984 0.984 0.984 0.984 0.984 0.984 0.984 0.9839 0.9839 0.9839 0.9839 0.9839 0.9839 0.9839 0.9839 0.9839 0.9839 0.9839 0.9839 0.9839 
0.9839 0.984 0.984 0.984 0.984 0.984 0.984 0.984 0.9839 0.9839 0.9839 0.9839 0.9839 0.9839 0.9839 0.9839 0.9839 0.9839 0.9839 0.9839 0.9839 
0.9839 0.984 0.984 0.984 0.984 0.984 0.984 0.984 0.9839 0.9839 0.9839 0.9839 0.9839 0.9839 0.9839 0.9839 0.9839 0.9839 0.9839 0.9839 0.9839 
0.9839 0.984 0.984 0.984 0.984 0.984 0.984 0.984 0.9839 0.9839 0.9839 0.9839 0.9839 0.9839 0.9839 0.9839 0.9839 0.9839 0.9839 0.9839 0.9839 
0.9839 0.984 0.984 0.984 0.984 0.984 0.984 0.984 0.9839 0.9839 0.9839 0.9839 0.9839 0.9839 0.9839 0.9839 0.9839 0.9839 0.9839 0.9839 0.9839 
0.9839 0.984 0.984 0.984 0.984 0.984 0.984 0.984 0.9839 0.9839 0.9839 0.9839 0.9839 0.9839 0.9839 0.9839 0.9839 0.9839 0.9839 0.9839 0.9839 
0.9839 0.984 0.984 0.984 0.984 0.984 0.984 0.984 0.9839 0.9839 0.9839 0.9839 0.9839 0.9839 0.9839 0.9839 0.9839 0.9839 0.9839 0.9839 0.9839 
0.9839 0.984 0.984 0.984 0.984 0.984 0.984 0.984 0.9839 0.9839 0.9839 0.9839 0.9839 0.9839 0.9839 0.9839 0.9839 0.9839 0.9839 0.9839 0.9839 
0.9839 0.984 0.984 0.984 0.984 0.984 0.984 0.984 0.9839 0.9839 0.9839 0.9839 0.9839 0.9839 0.9839 0.9839 0.9839 0.9839 0.9839 0.9839 0.9839 
0.9839 0.984 0.984 0.984 0.984 0.984 0.984 0.984 0.9839 0.9839 0.9839 0.9839 0.9839 0.9839 0.9839 0.9839 0.9839 0.9839 0.9839 0.9839 0.9839 
0.9839 0.984 0.984 0.984 0.984 0.984 0.984 0.984 0.9839 0.9839 0.9839 0.9839 0.9839 0.9839 0.9839 0.9839 0.9839 0.9839 0.9839 0.9839 0.9839 
0.9839 0.984 0.984 0.984 0.984 0.984 0.984 0.984 0.9839 0.9839 0.9839 0.9839 0.9839 0.9839 0.9839 0.9839 0.9839 0.9839 0.9839 0.9839 0.9839 
0.9839 0.984 0.984 0.984 0.984 0.984 0.984 0.984 0.9839 0.9839 0.9839 0.9839 0.9839 0.9839 0.9839 0.9839 0.9839 0.9839 0.9839 0.9839 0.9839 
0.9839 0.984 0.984 0.984 0.984 0.984 0.984 0.984 0.9839 0.9839 0.9839 0.9839 0.9839 0.9839 0.9839 0.9839 0.9839 0.9839 0.9839 0.9839 0.9839 
0.9839 0.984 0.984 0.984 0.984 0.984 0.984 0.984 0.9839 0.9839 0.9839 0.9839 0.9839 0.9839 0.9839 0.9839 0.9839 0.9839 0.9839 0.9839 0.9839 
0.9839 0.984 0.984 0.984 0.984 0.984 0.984 0.984 0.9839 0.9839 0.9839 0.9839 0.9839 0.9839 0.9839 0.9839 0.9839 0.9839 0.9839 0.9839 0.9839 
0.9839 0.984 0.984 0.984 0.984 0.984 0.984 0.984 0.9839 0.9839 0.9839 0.9839 0.9839 0.9839 0.9839 0.9839 0.9839 0.9839 0.9839 0.9839 0.9839 
0.9839 0.984 0.984 0.984 0.984 0.984 0.984 0.984 0.9839 0.9839 0.9839 0.9839 0.9839 0.9839 0.9839 0.9839 0.9839 0.9839 0.9839 0.9839 0.9839 
0.9839 0.984 0.984 0.984 0.984 0.984 0.984 0.984 0.9839 0.9839 0.9839 0.9839 0.9839 0.9839 0.9839 0.9839 0.9839 0.9839 0.9839 0.9839 0.9839 
0.9839 0.984 0.984 0.984 0.984 0.984 0.984 0.984 0.9839 0.9839 0.9839 0.9839 0.9839 0.9839 0.9839 0.9839 0.9839 0.9839 0.9839 0.9839 0.9839 
0.9839 0.984 0.984 0.984 0.984 0.984 0.984 0.984 0.9839 0.9839 0.9839 0.9839 0.9839 0.9839 0.9839 0.9839 0.9839 0.9839 0.9839 0.9839 0.9839 
0.9839 0.984 0.984 0.984 0.984 0.984 0.984 0.984 0.9839 0.9839 0.9839 0.9839 0.9839 0.9839 0.9839 0.9839 0.9839 0.9839 0.9839 0.9839 0.9839 
0.9839 0.984 0.984 0.984 0.984 0.984 0.984 0.984 0.9839 0.9839 0.9839 0.9839 0.9839 0.9839 0.9839 0.9839 0.9839 0.9839 0.9839 0.9839 0.9839 
0.9839 0.984 0.984 0.984 0.984 0.984 0.984 0.984 0.9839 0.9839 0.9839 0.9839 0.9839 0.9839 0.9839 0.9839 0.9839 0.9839 0.9839 0.9839 0.9839 
0.9839 0.984 0.984 0.984 0.984 0.984 0.984 0.984 0.9839 0.9839 0.9839 0.9839 0.9839 0.9839 0.9839 0.9839 0.9839 0.9839 0.9839 0.9839 0.9839 
0.9839 0.984 0.984 0.984 0.984 0.984 0.984 0.984 0.9839 0.9839 0.9839 0.9839 0.9839 0.9839 0.9839 0.9839 0.9839 0.9839 0.9839 0.9839 0.9839 
0.9839 0.984 0.984 0.984 0.984 0.984 0.984 0.984 0.9839 0.9839 0.9839 0.9839 0.9839 0.9839 0.9839 0.9839 0.9839 0.9839 0.9839 0.9839 0.9839 
0.9839 0.984 0.984 0.984 0.984 0.984 0.984 0.984 0.9839 0.9839 0.9839 0.9839 0.9839 0.9839 0.9839 0.9839 0.9839 0.9839 0.9839 0.9839 0.9839 
0.9839 0.984 0.984 0.984 0.984 0.984 0.984 0.984 0.9839 0.9839 0.9839 0.9839 0.9839 0.9839 0.9839 0.9839 0.9839 0.9839 0.9839 0.9839 0.9839 
0.9839 0.984 0.984 0.984 0.984 0.984 0.984 0.984 0.9839 0.9839 0.9839 0.9839 0.9839 0.9839 0.9839 0.9839 0.9839 0.9839 0.9839 0.9839 0.9839 
0.9839 0.984 0.984 0.984 0.984 0.984 0.984 0.984 0.9839 0.9839 0.9839 0.9839 0.9839 0.9839 0.9839 0.9839 0.9839 0.9839 0.9839 0.9839 0.9839 
0.9839 0.984 0.984 0.984 0.984 0.984 0.984 0.984 0.9839 0.9839 0.9839 0.9839 0.9839 0.9839 0.9839 0.9839 0.9839 0.9839 0.9839 0.9839 0.9839 
</DataArray>
</PointData>
</Piece>
</ImageData>
</VTKFile>
