<VTKFile type="ImageData">
<ImageData Origin="0 -10 0" Spacing="0.5 0.5 1" WholeExtent="0 20 0 40 0 0">
<Piece Extent="0 20 0 40 0 0">
<PointData>
<DataArray Name="f" NumberOfComponents="1" format="ascii" type="Float64">
4.68e-06 4.68e-06 4.68e-06 4.68e-06 4.68e-06 4.68e-06 4.68e-06 4.68e-06 4.68e-06 4.68e-06 4.68e-06 4.68e-06 4.68e-06 4.68e-06 4.68e-06 4.68e-06 4.68e-06 4.68e-06 4.68e-06 4.68e-06 4.68e-06 
1.361e-05 1.361e-05 1.361e-05 1.361e-05 1.361e-05 1.361e-05 1.361e-05 1.361e-05 1.361e-05 1.361e-05 1.361e-05 1.361e-05 1.361e-05 1.361e-05 1.361e-05 1.361e-05 1.361e-05 1.361e-05 1.361e-05 1.361e-05 1.361e-05 
3.773e-05 3.773e-05 3.773e-05 3.773e-05 3.773e-05 3.773e-05 3.773e-05 3.773e-05 3.773e-05 3.773e-05 3.773e-05 3.773e-05 3.773e-05 3.773e-05 3.773e-05 3.773e-05 3.773e-05 3.773e-05 3.773e-05 3.773e-05 3.773e-05 
9.876e-05 9.876e-05 9.876e-05 9.876e-05 9.876e-05 9.876e-05 9.876e-05 9.876e-05 9.876e-05 9.876e-05 9.876e-05 9.876e-05 9.876e-05 9.876e-05 9.876e-05 9.876e-05 9.876e-05 9.876e-05 9.876e-05 9.876e-05 9.876e-05 
0.0002441 0.0002441 0.0002441 0.0002441 0.0002441 0.0002441 0.0002441 0.0002441 0.0002441 0.0002441 0.0002441 0.0002441 0.0002441 0.0002441 0.0002441 0.0002441 0.0002441 0.0002441 0.0002441 0.0002441 0.0002441 
0.0005694 0.0005694 0.0005694 0.0005694 0.0005694 0.0005694 0.0005694 0.0005694 0.0005694 0.0005694 0.0005694 0.0005694 0.0005694 0.0005694 0.0005694 0.0005694 0.0005694 0.0005694 0.0005694 0.0005694 0.0005694 
0.001254 0.001254 0.001254 0.001254 0.001254 0.001254 0.001254 0.001254 0.001254 0.001254 0.001254 0.001254 0.001254 0.001254 0.001254 0.001254 0.001254 0.001254 0.001254 0.001254 0.001254 
0.002609 0.002609 0.002609 0.002609 0.002609 0.002609 0.002609 0.002609 0.002609 0.002609 0.002609 0.002609 0.002609 0.002609 0.002609 0.002609 0.002609 0.002609 0.002609 0.002609 0.002609 
0.005126 0.005126 0.005126 0.005126 0.005126 0.005126 0.005126 0.005126 0.005126 0.005126 0.005126 0.005126 0.005126 0.005126 0.005126 0.005126 0.005126 0.005126 0.005126 0.005126 0.005126 
0.009511 0.009511 0.009511 0.009511 0.009511 0.009511 0.009511 0.009511 0.009511 0.009511 0.009511 0.009511 0.009511 0.009511 0.009511 0.009511 0.009511 0.009511 0.009511 0.009511 0.009511 
0.01666 0.01666 0.01666 0.01666 0.01666 0.01666 0.01666 0.01666 0.01666 0.01666 0.01666 0.01666 0.01666 0.01666 0.01666 0.01666 0.01666 0.01666 0.01666 0.01666 0.01666 
0.02757 0.02757 0.02757 0.02757 0.02757 0.02757 0.02757 0.02757 0.02757 0.02757 0.02757 0.02757 0.02757 0.02757 0.02757 0.02757 0.02757 0.02757 0.02757 0.02757 0.02757 
0.04308 0.04308 0.04308 0.04308 0.04308 0.04308 0.04308 0.04308 0.04308 0.04308 0.04308 0.04308 0.04308 0.04308 0.04308 0.04308 0.04308 0.04308 0.04308 0.04308 0.04308 
0.06356 0.06356 0.06356 0.06356 0.06356 0.06356 0.06356 0.06356 0.06356 0.06356 0.06356 0.06356 0.06356 0.06356 0.06356 0.06356 0.06356 0.06356 0.06356 0.06356 0.06356 
0.08852 0.08852 0.08852 0.08852 0.08852 0.08852 0.08852 0.08852 0.08852 0.08852 0.08852 0.08852 0.08852 0.08852 0.08852 0.08852 0.08852 0.08852 0.08852 0.08852 0.08852 
0.1164 0.1164 0.1164 0.1164 0.1164 0.1164 0.1164 0.1164 0.1164 0.1164 0.1164 0.1164 0.1164 0.1164 0.1164 0.1164 0.1164 0.1164 0.1164 0.1164 0.1164 
0.1443 0.1443 0.1443 0.1443 0.1443 0.1443 0.1443 0.1443 0.1443 0.1443 0.1443 0.1443 0.1443 0.1443 0.1443 0.1443 0.1443 0.1443 0.1443 0.1443 0.1443 
0.1689 0.1689 0.1689 0.1689 0.1689 0.1689 0.1689 0.1689 0.1689 0.1689 0.1689 0.1689 0.1689 0.1689 0.1689 0.1689 0.1689 0.1689 0.1689 0.1689 0.1689 
0.1865 0.1865 0.1865 0.1865 0.1865 0.1865 0.1865 0.1865 0.1865 0.1865 0.1865 0.1865 0.1865 0.1865 0.1865 0.1865 0.1865 0.1865 0.1865 0.1865 0.1865 
0.1941 0.1941 0.1941 0.1941 0.1941 0.1941 0.1941 0.1941 0.1941 0.1941 0.1941 0.1941 0.1941 0.1941 0.1941 0.1941 0.1941 0.1941 0.1941 0.1941 0.1941 
0.1904 0.1904 0.1904 0.1904 0.1904 0.1904 0.1904 0.1904 0.1904 0.1904 0.1904 0.1904 0.1904 0.1904 0.1904 0.1904 0.1904 0.1904 0.1904 0.1904 0.1904 
0.176 0.176 0.176 0.176 0.176 0.176 0.176 0.176 0.176 0.176 0.176 0.176 0.176 0.176 0.176 0.176 0.176 0.176 0.176 0.176 0.176 
0.1533 0.1533 0.1533 0.1533 0.1533 0.1533 0.1533 0.1533 0.1533 0.1533 0.1533 0.1533 0.1533 0.1533 0.1533 0.1533 0.1533 0.1533 0.1533 0.1533 0.1533 
0.1257 0.1257 0.1257 0.1257 0.1257 0.1257 0.1257 0.1257 0.1257 0.1257 0.1257 0.1257 0.1257 0.1257 0.1257 0.1257 0.1257 0.1257 0.1257 0.1257 0.1257 
0.09696 0.09696 0.09696 0.09696 0.09696 0.09696 0.09696 0.09696 0.09696 0.09696 0.09696 0.09696 0.09696 0.09696 0.09696 0.09696 0.09696 0.09696 0.09696 0.09696 0.09696 
0.07036 0.07036 0.07036 0.07036 0.07036 0.07036 0.07036 0.07036 0.07036 0.07036 0.07036 0.07036 0.07036 0.07036 0.07036 0.07036 0.07036 0.07036 0.07036 0.07036 0.07036 
0.048 0.048 0.048 0.048 0.048 0.048 0.048 0.048 0.048 0.048 0.048 0.048 0.048 0.048 0.048 0.048 0.048 0.048 0.048 0.048 0.048 
0.03076 0.03076 0.03076 0.03076 0.03076 0.03076 0.03076 0.03076 0.03076 0.03076 0.03076 0.03076 0.03076 0.03076 0.03076 0.03076 0.03076 0.03076 0.03076 0.03076 0.03076 
0.01851 0.01851 0.01851 0.01851 0.01851 0.01851 0.01851 0.01851 0.01851 0.01851 0.01851 0.01851 0.01851 0.01851 0.01851 0.01851 0.01851 0.01851 0.01851 0.01851 0.01851 
0.01045 0.01045 0.01045 0.01045 0.01045 0.01045 0.01045 0.01045 0.01045 0.01045 0.01045 0.01045 0.01045 0.01045 0.01045 0.01045 0.01045 0.01045 0.01045 0.01045 0.01045 
0.005535 0.005535 0.005535 0.005535 0.005535 0.005535 0.005535 0.005535 0.005535 0.005535 0.005535 0.005535 0.005535 0.005535 0.005535 0.005535 0.005535 0.005535 0.005535 0.005535 0.005535 
0.002746 0.002746 0.002746 0.002746 0.002746 0.002746 0.002746 0.002746 0.002746 0.002746 0.002746 0.002746 0.002746 0.002746 0.002746 0.002746 0.002746 0.002746 0.002746 0.002746 0.002746 
0.001275 0.001275 0.001275 0.001275 0.001275 0.001275 0.001275 0.001275 0.001275 0.001275 0.001275 0.001275 0.001275 0.001275 0.001275 0.001275 0.001275 0.001275 0.001275 0.001275 0.001275 
0.0005539 0.0005539 0.0005539 0.0005539 0.0005539 0.0005539 0.0005539 0.0005539 0.0005539 0.0005539 0.0005539 0.0005539 0.0005539 0.0005539 0.0005539 0.0005539 0.0005539 0.0005539 0.0005539 0.0005539 0.0005539 
0.0002248 0.0002248 0.0002248 0.0002248 0.0002248 0.0002248 0.0002248 0.0002248 0.0002248 0.0002248 0.0002248 0.0002248 0.0002248 0.0002248 0.0002248 0.0002248 0.0002248 0.0002248 0.0002248 0.0002248 0.0002248 
8.517e-05 8.517e-05 8.517e-05 8.516e-05 8.516e-05 8.516e-05 8.516e-05 8.516e-05 8.516e-05 8.516e-05 8.516e-05 8.516e-05 8.516e-05 8.516e-05 8.516e-05 8.517e-05 8.517e-05 8.517e-05 8.517e-05 8.517e-05 8.517e-05 
3.009e-05 3.009e-05 3.009e-05 3.009e-05 3.009e-05 3.009e-05 3.009e-05 3.009e-05 3.009e-05 3.009e-05 3.009e-05 3.009e-05 3.009e-05 3.009e-05 3.009e-05 3.009e-05 3.009e-05 3.009e-05 3.009e-05 3.009e-05 3.009e-05 
9.93e-06 9.93e-06 9.93e-06 9.93e-06 9.93e-06 9.93e-06 9.93e-06 9.93e-06 9.929e-06 9.929e-06 9.929e-06 9.929e-06 9.929e-06 9.929e-06 9.929e-06 9.929e-06 9.929e-06 9.929e-06 9.929e-06 9.93e-06 9.93e-06 
3.155e-06 3.155e-06 3.155e-06 3.155e-06 3.155e-06 3.155e-06 3.155e-06 3.155e-06 3.155e-06 3.155e-06 3.155e-06 3.155e-06 3.155e-06 3.155e-06 3.155e-06 3.155e-06 3.155e-06 3.155e-06 3.155e-06 3.155e-06 3.155e-06 
1.309e-06 1.309e-06 1.309e-06 1.309e-06 1.309e-06 1.309e-06 1.309e-06 1.309e-06 1.309e-06 1.309e-06 1.309e-06 1.309e-06 1.309e-06 1.309e-06 1.309e-06 1.309e-06 1.309e-06 1.309e-06 1.309e-06 1.309e-06 1.309e-06 
1.71e-06 1.71e-06 1.71e-06 1.71e-06 1.71e-06 1.71e-06 1.71e-06 1.71e-06 1.71e-06 1.71e-06 1.71e-06 1.71e-06 1.71e-06 1.71e-06 1.71e-06 1.71e-06 1.71e-06 1.71e-06 1.71e-06 1.71e-06 1.71e-06 
</DataArray>
<DataArray Name="E" NumberOfComponents="1" format="ascii" type="Float64">
-1.453 -1.453 -1.453 -1.453 -1.453 -1.453 -1.453 -1.453 -1.453 -1.453 -1.453 -1.453 -1.453 -1.453 -1.453 -1.453 -1.453 -1.453 -1.453 -1.453 -1.453 
-1.453 -1.453 -1.453 -1.453 -1.453 -1.453 -1.453 -1.453 -1.453 -1.453 -1.453 -1.453 -1.453 -1.453 -1.453 -1.453 -1.453 -1.453 -1.453 -1.453 -1.453 
-1.453 -1.453 -1.453 -1.453 -1.453 -1.453 -1.453 -1.453 -1.453 -1.453 -1.453 -1.453 -1.453 -1.453 -1.453 -1.453 -1.453 -1.453 -1.453 -1.453 -1.453 
-1.453 -1.453 -1.453 -1.453 -1.453 -1.453 -1.453 -1.453 -1.453 -1.453 -1.453 -1.453 -1.453 -1.453 -1.453 -1.453 -1.453 -1.453 -1.453 -1.453 -1.453 
-1.453 -1.453 -1.453 -1.453 -1.453 -1.453 -1.453 -1.453 -1.453 -1.453 -1.453 -1.453 -1.453 -1.453 -1.453 -1.453 -1.453 -1.453 -1.453 -1.453 -1.453 
-1.453 -1.453 -1.453 -1.453 -1.453 -1.453 -1.453 -1.453 -1.453 -1.453 -1.453 -1.453 -1.453 -1.453 -1.453 -1.453 -1.453 -1.453 -1.453 -1.453 -1.453 
-1.453 -1.453 -1.453 -1.453 -1.453 -1.453 -1.453 -1.453 -1.453 -1.453 -1.453 -1.453 -1.453 -1.453 -1.453 -1.453 -1.453 -1.453 -1.453 -1.453 -1.453 
-1.453 -1.453 -1.453 -1.453 -1.453 -1.453 -1.453 -1.453 -1.453 -1.453 -1.453 -1.453 -1.453 -1.453 -1.453 -1.453 -1.453 -1.453 -1.453 -1.453 -1.453 
-1.453 -1.453 -1.453 -1.453 -1.453 -1.453 -1.453 -1.453 -1.453 -1.453 -1.453 -1.453 -1.453 -1.453 -1.453 -1.453 -1.453 -1.453 -1.453 -1.453 -1.453 
-1.453 -1.453 -1.453 -1.453 -1.453 -1.453 -1.453 -1.453 -1.453 -1.453 -1.453 -1.453 -1.453 -1.453 -1.453 -1.453 -1.453 -1.453 -1.453 -1.453 -1.453 
-1.453 -1.453 -1.453 -1.453 -1.453 -1.453 -1.453 -1.453 -1.453 -1.453 -1.453 -1.453 -1.453 -1.453 -1.453 -1.453 -1.453 -1.453 -1.453 -1.453 -1.453 
-1.453 -1.453 -1.453 -1.453 -1.453 -1.453 -1.453 -1.453 -1.453 -1.453 -1.453 -1.453 -1.453 -1.453 -1.453 -1.453 -1.453 -1.453 -1.453 -1.453 -1.453 
-1.453 -1.453 -1.453 -1.453 -1.453 -1.453 -1.453 -1.453 -1.453 -1.453 -1.453 -1.453 -1.453 -1.453 -1.453 -1.453 -1.453 -1.453 -1.453 -1.453 -1.453 
-1.453 -1.453 -1.453 -1.453 -1.453 -1.453 -1.453 -1.453 -1.453 -1.453 -1.453 -1.453 -1.453 -1.453 -1.453 -1.453 -1.453 -1.453 -1.453 -1.453 -1.453 
-1.453 -1.453 -1.453 -1.453 -1.453 -1.453 -1.453 -1.453 -1.453 -1.453 -1.453 -1.453 -1.453 -1.453 -1.453 -1.453 -1.453 -1.453 -1.453 -1.453 -1.453 
-1.453 -1.453 -1.453 -1.453 -1.453 -1.453 -1.453 -1.453 -1.453 -1.453 -1.453 -1.453 -1.453 -1.453 -1.453 -1.453 -1.453 -1.453 -1.453 -1.453 -1.453 
-1.453 -1.453 -1.453 -1.453 -1.453 -1.453 -1.453 -1.453 -1.453 -1.453 -1.453 -1.453 -1.453 -1.453 -1.453 -1.453 -1.453 -1.453 -1.453 -1.453 -1.453 
-1.453 -1.453 -1.453 -1.453 -1.453 -1.453 -1.453 -1.453 -1.453 -1.453 -1.453 -1.453 -1.453 -1.453 -1.453 -1.453 -1.453 -1.453 -1.453 -1.453 -1.453 
-1.453 -1.453 -1.453 -1.453 -1.453 -1.453 -1.453 -1.453 -1.453 -1.453 -1.453 -1.453 -1.453 -1.453 -1.453 -1.453 -1.453 -1.453 -1.453 -1.453 -1.453 
-1.453 -1.453 -1.453 -1.453 -1.453 -1.453 -1.453 -1.453 -1.453 -1.453 -1.453 -1.453 -1.453 -1.453 -1.453 -1.453 -1.453 -1.453 -1.453 -1.453 -1.453 
-1.453 -1.453 -1.453 -1.453 -1.453 -1.453 -1.453 -1.453 -1.453 -1.453 -1.453 -1.453 -1.453 -1.453 -1.453 -1.453 -1.453 -1.453 -1.453 -1.453 -1.453 
-1.453 -1.453 -1.453 -1.453 -1.453 -1.453 -1.453 -1.453 -1.453 -1.453 -1.453 -1.453 -1.453 -1.453 -1.453 -1.453 -1.453 -1.453 -1.453 -1.453 -1.453 
-1.453 -1.453 -1.453 -1.453 -1.453 -1.453 -1.453 -1.453 -1.453 -1.453 -1.453 -1.453 -1.453 -1.453 -1.453 -1.453 -1.453 -1.453 -1.453 -1.453 -1.453 
-1.453 -1.453 -1.453 -1.453 -1.453 -1.453 -1.453 -1.453 -1.453 -1.453 -1.453 -1.453 -1.453 -1.453 -1.453 -1.453 -1.453 -1.453 -1.453 -1.453 -1.453 
-1.453 -1.453 -1.453 -1.453 -1.453 -1.453 -1.453 -1.453 -1.453 -1.453 -1.453 -1.453 -1.453 -1.453 -1.453 -1.453 -1.453 -1.453 -1.453 -1.453 -1.453 
-1.453 -1.453 -1.453 -1.453 -1.453 -1.453 -1.453 -1.453 -1.453 -1.453 -1.453 -1.453 -1.453 -1.453 -1.453 -1.453 -1.453 -1.453 -1.453 -1.453 -1.453 
-1.453 -1.453 -1.453 -1.453 -1.453 -1.453 -1.453 -1.453 -1.453 -1.453 -1.453 -1.453 -1.453 -1.453 -1.453 -1.453 -1.453 -1.453 -1.453 -1.453 -1.453 
-1.453 -1.453 -1.453 -1.453 -1.453 -1.453 -1.453 -1.453 -1.453 -1.453 -1.453 -1.453 -1.453 -1.453 -1.453 -1.453 -1.453 -1.453 -1.453 -1.453 -1.453 
-1.453 -1.453 -1.453 -1.453 -1.453 -1.453 -1.453 -1.453 -1.453 -1.453 -1.453 -1.453 -1.453 -1.453 -1.453 -1.453 -1.453 -1.453 -1.453 -1.453 -1.453 
-1.453 -1.453 -1.453 -1.453 -1.453 -1.453 -1.453 -1.453 -1.453 -1.453 -1.453 -1.453 -1.453 -1.453 -1.453 -1.453 -1.453 -1.453 -1.453 -1.453 -1.453 
-1.453 -1.453 -1.453 -1.453 -1.453 -1.453 -1.453 -1.453 -1.453 -1.453 -1.453 -1.453 -1.453 -1.453 -1.453 -1.453 -1.453 -1.453 -1.453 -1.453 -1.453 
-1.453 -1.453 -1.453 -1.453 -1.453 -1.453 -1.453 -1.453 -1.453 -1.453 -1.453 -1.453 -1.453 -1.453 -1.453 -1.453 -1.453 -1.453 -1.453 -1.453 -1.453 
-1.453 -1.453 -1.453 -1.453 -1.453 -1.453 -1.453 -1.453 -1.453 -1.453 -1.453 -1.453 -1.453 -1.453 -1.453 -1.453 -1.453 -1.453 -1.453 -1.453 -1.453 
-1.453 -1.453 -1.453 -1.453 -1.453 -1.453 -1.453 -1.453 -1.453 -1.453 -1.453 -1.453 -1.453 -1.453 -1.453 -1.453 -1.453 -1.453 -1.453 -1.453 -1.453 
-1.453 -1.453 -1.453 -1.453 -1.453 -1.453 -1.453 -1.453 -1.453 -1.453 -1.453 -1.453 -1.453 -1.453 -1.453 -1.453 -1.453 -1.453 -1.453 -1.453 -1.453 
-1.453 -1.453 -1.453 -1.453 -1.453 -1.453 -1.453 -1.453 -1.453 -1.453 -1.453 -1.453 -1.453 -1.453 -1.453 -1.453 -1.453 -1.453 -1.453 -1.453 -1.453 
-1.453 -1.453 -1.453 -1.453 -1.453 -1.453 -1.453 -1.453 -1.453 -1.453 -1.453 -1.453 -1.453 -1.453 -1.453 -1.453 -1.453 -1.453 -1.453 -1.453 -1.453 
-1.453 -1.453 -1.453 -1.453 -1.453 -1.453 -1.453 -1.453 -1.453 -1.453 -1.453 -1.453 -1.453 -1.453 -1.453 -1.453 -1.453 -1.453 -1.453 -1.453 -1.453 
-1.453 -1.453 -1.453 -1.453 -1.453 -1.453 -1.453 -1.453 -1.453 -1.453 -1.453 -1.453 -1.453 -1.453 -1.453 -1.453 -1.453 -1.453 -1.453 -1.453 -1.453 
-1.453 -1.453 -1.453 -1.453 -1.453 -1.453 -1.453 -1.453 -1.453 -1.453 -1.453 -1.453 -1.453 -1.453 -1.453 -1.453 -1.453 -1.453 -1.453 -1.453 -1.453 
-1.453 -1.453 -1.453 -1.453 -1.453 -1.453 -1.453 -1.453 -1.453 -1.453 -1.453 -1.453 -1.453 -1.453 -1.453 -1.453 -1.453 -1.453 -1.453 -1.453 -1.453 
</DataArray>
<DataArray Name="ne" NumberOfComponents="1" format="ascii" type="Float64">
1 1 1 1 1 1 1 1 1 1 1 1 1 1 1 1 1 1 1 1 1 
1 1 1 1 1 1 1 1 1 1 1 1 1 1 1 1 1 1 1 1 1 
1 1 1 1 1 1 1 1 1 1 1 1 1 1 1 1 1 1 1 1 1 
1 1 1 1 1 1 1 1 1 1 1 1 1 1 1 1 1 1 1 1 1 
1 1 1 1 1 1 1 1 1 1 1 1 1 1 1 1 1 1 1 1 1 
1 1 1 1 1 1 1 1 1 1 1 1 1 1 1 1 1 1 1 1 1 
1 1 1 1 1 1 1 1 1 1 1 1 1 1 1 1 1 1 1 1 1 
1 1 1 1 1 1 1 1 1 1 1 1 1 1 1 1 1 1 1 1 1 
1 1 1 1 1 1 1 1 1 1 1 1 1 1 1 1 1 1 1 1 1 
1 1 1 1 1 1 1 1 1 1 1 1 1 1 1 1 1 1 1 1 1 
1 1 1 1 1 1 1 1 1 1 1 1 1 1 1 1 1 1 1 1 1 
1 1 1 1 1 1 1 1 1 1 1 1 1 1 1 1 1 1 1 1 1 
1 1 1 1 1 1 1 1 1 1 1 1 1 1 1 1 1 1 1 1 1 
1 1 1 1 1 1 1 1 1 1 1 1 1 1 1 1 1 1 1 1 1 
1 1 1 1 1 1 1 1 1 1 1 1 1 1 1 1 1 1 1 1 1 
1 1 1 1 1 1 1 1 1 1 1 1 1 1 1 1 1 1 1 1 1 
1 1 1 1 1 1 1 1 1 1 1 1 1 1 1 1 1 1 1 1 1 
1 1 1 1 1 1 1 1 1 1 1 1 1 1 1 1 1 1 1 1 1 
1 1 1 1 1 1 1 1 1 1 1 1 1 1 1 1 1 1 1 1 1 
1 1 1 1 1 1 1 1 1 1 1 1 1 1 1 1 1 1 1 1 1 
1 1 1 1 1 1 1 1 1 1 1 1 1 1 1 1 1 1 1 1 1 
1 1 1 1 1 1 1 1 1 1 1 1 1 1 1 1 1 1 1 1 1 
1 1 1 1 1 1 1 1 1 1 1 1 1 1 1 1 1 1 1 1 1 
1 1 1 1 1 1 1 1 1 1 1 1 1 1 1 1 1 1 1 1 1 
1 1 1 1 1 1 1 1 1 1 1 1 1 1 1 1 1 1 1 1 1 
1 1 1 1 1 1 1 1 1 1 1 1 1 1 1 1 1 1 1 1 1 
1 1 1 1 1 1 1 1 1 1 1 1 1 1 1 1 1 1 1 1 1 
1 1 1 1 1 1 1 1 1 1 1 1 1 1 1 1 1 1 1 1 1 
1 1 1 1 1 1 1 1 1 1 1 1 1 1 1 1 1 1 1 1 1 
1 1 1 1 1 1 1 1 1 1 1 1 1 1 1 1 1 1 1 1 1 
1 1 1 1 1 1 1 1 1 1 1 1 1 1 1 1 1 1 1 1 1 
1 1 1 1 1 1 1 1 1 1 1 1 1 1 1 1 1 1 1 1 1 
1 1 1 1 1 1 1 1 1 1 1 1 1 1 1 1 1 1 1 1 1 
1 1 1 1 1 1 1 1 1 1 1 1 1 1 1 1 1 1 1 1 1 
1 1 1 1 1 1 1 1 1 1 1 1 1 1 1 1 1 1 1 1 1 
1 1 1 1 1 1 1 1 1 1 1 1 1 1 1 1 1 1 1 1 1 
1 1 1 1 1 1 1 1 1 1 1 1 1 1 1 1 1 1 1 1 1 
1 1 1 1 1 1 1 1 1 1 1 1 1 1 1 1 1 1 1 1 1 
1 1 1 1 1 1 1 1 1 1 1 1 1 1 1 1 1 1 1 1 1 
1 1 1 1 1 1 1 1 1 1 1 1 1 1 1 1 1 1 1 1 1 
1 1 1 1 1 1 1 1 1 1 1 1 1 1 1 1 1 1 1 1 1 
</DataArray>
</PointData>
</Piece>
</ImageData>
</VTKFile>
