<VTKFile type="ImageData">
<ImageData Origin="0 -10 0" Spacing="0.5 0.5 1" WholeExtent="0 20 0 40 0 0">
<Piece Extent="0 20 0 40 0 0">
<PointData>
<DataArray Name="f" NumberOfComponents="1" format="ascii" type="Float64">
0.0001207 0.0001207 0.0001207 0.0001207 0.0001207 0.0001207 0.0001207 0.0001207 0.0001207 0.0001207 0.0001207 0.0001207 0.0001207 0.0001207 0.0001207 0.0001207 0.0001207 0.0001207 0.0001207 0.0001207 0.0001207 
0.000314 0.000314 0.000314 0.000314 0.000314 0.000314 0.000314 0.000314 0.000314 0.000314 0.000314 0.000314 0.000314 0.000314 0.000314 0.000314 0.000314 0.000314 0.000314 0.000314 0.000314 
0.000766 0.000766 0.000766 0.000766 0.000766 0.000766 0.000766 0.000766 0.000766 0.000766 0.000766 0.000766 0.000766 0.000766 0.000766 0.000766 0.000766 0.000766 0.000766 0.000766 0.000766 
0.001752 0.001752 0.001752 0.001752 0.001752 0.001752 0.001752 0.001752 0.001752 0.001752 0.001752 0.001752 0.001752 0.001752 0.001752 0.001752 0.001752 0.001752 0.001752 0.001752 0.001752 
0.003757 0.003757 0.003757 0.003757 0.003757 0.003757 0.003757 0.003757 0.003757 0.003757 0.003757 0.003757 0.003757 0.003757 0.003757 0.003757 0.003757 0.003757 0.003757 0.003757 0.003757 
0.007553 0.007553 0.007553 0.007553 0.007553 0.007553 0.007553 0.007553 0.007553 0.007553 0.007553 0.007553 0.007553 0.007553 0.007553 0.007553 0.007553 0.007553 0.007553 0.007553 0.007553 
0.01423 0.01423 0.01423 0.01423 0.01423 0.01423 0.01423 0.01423 0.01423 0.01423 0.01423 0.01423 0.01423 0.01423 0.01423 0.01423 0.01423 0.01423 0.01423 0.01423 0.01423 
0.02511 0.02511 0.02511 0.02511 0.02511 0.02511 0.02511 0.02511 0.02511 0.02511 0.02511 0.02511 0.02511 0.02511 0.02511 0.02511 0.02511 0.02511 0.02511 0.02511 0.02511 
0.0415 0.0415 0.0415 0.0415 0.0415 0.0415 0.0415 0.0415 0.0415 0.0415 0.0415 0.0415 0.0415 0.0415 0.0415 0.0415 0.0415 0.0415 0.0415 0.0415 0.0415 
0.06419 0.06419 0.06419 0.06419 0.06419 0.06419 0.06419 0.06419 0.06419 0.06419 0.06419 0.06419 0.06419 0.06419 0.06419 0.06419 0.06419 0.06419 0.06419 0.06419 0.06419 
0.09291 0.09291 0.09291 0.09291 0.09291 0.09291 0.09291 0.09291 0.09291 0.09291 0.09291 0.09291 0.09291 0.09291 0.09291 0.09291 0.09291 0.09291 0.09291 0.09291 0.09291 
0.1257 0.1257 0.1257 0.1257 0.1257 0.1257 0.1257 0.1257 0.1257 0.1257 0.1257 0.1257 0.1257 0.1257 0.1257 0.1257 0.1257 0.1257 0.1257 0.1257 0.1257 
0.159 0.159 0.159 0.159 0.159 0.159 0.159 0.159 0.159 0.159 0.159 0.159 0.159 0.159 0.159 0.159 0.159 0.159 0.159 0.159 0.159 
0.1877 0.1877 0.1877 0.1877 0.1877 0.1877 0.1877 0.1877 0.1877 0.1877 0.1877 0.1877 0.1877 0.1877 0.1877 0.1877 0.1877 0.1877 0.1877 0.1877 0.1877 
0.2068 0.2068 0.2068 0.2068 0.2068 0.2068 0.2068 0.2068 0.2068 0.2068 0.2068 0.2068 0.2068 0.2068 0.2068 0.2068 0.2068 0.2068 0.2068 0.2068 0.2068 
0.2125 0.2125 0.2125 0.2125 0.2125 0.2125 0.2125 0.2125 0.2125 0.2125 0.2125 0.2125 0.2125 0.2125 0.2125 0.2125 0.2125 0.2125 0.2125 0.2125 0.2125 
0.2033 0.2033 0.2033 0.2033 0.2033 0.2033 0.2033 0.2033 0.2033 0.2033 0.2033 0.2033 0.2033 0.2033 0.2033 0.2033 0.2033 0.2033 0.2033 0.2033 0.2033 
0.181 0.181 0.181 0.181 0.181 0.181 0.181 0.181 0.181 0.181 0.181 0.181 0.181 0.181 0.181 0.181 0.181 0.181 0.181 0.181 0.181 
0.1499 0.1499 0.1499 0.1499 0.1499 0.1499 0.1499 0.1499 0.1499 0.1499 0.1499 0.1499 0.1499 0.1499 0.1499 0.1499 0.1499 0.1499 0.1499 0.1499 0.1499 
0.1153 0.1153 0.1153 0.1153 0.1153 0.1153 0.1153 0.1153 0.1153 0.1153 0.1153 0.1153 0.1153 0.1153 0.1153 0.1153 0.1153 0.1153 0.1153 0.1153 0.1153 
0.08222 0.08222 0.08222 0.08222 0.08222 0.08222 0.08222 0.08222 0.08222 0.08222 0.08222 0.08222 0.08222 0.08222 0.08222 0.08222 0.08222 0.08222 0.08222 0.08222 0.08222 
0.05435 0.05435 0.05435 0.05435 0.05435 0.05435 0.05435 0.05435 0.05435 0.05435 0.05435 0.05435 0.05435 0.05435 0.05435 0.05435 0.05435 0.05435 0.05435 0.05435 0.05435 
0.03325 0.03325 0.03325 0.03325 0.03325 0.03325 0.03325 0.03325 0.03325 0.03325 0.03325 0.03325 0.03325 0.03325 0.03325 0.03325 0.03325 0.03325 0.03325 0.03325 0.03325 
0.0188 0.0188 0.0188 0.0188 0.0188 0.0188 0.0188 0.0188 0.0188 0.0188 0.0188 0.0188 0.0188 0.0188 0.0188 0.0188 0.0188 0.0188 0.0188 0.0188 0.0188 
0.00981 0.00981 0.009809 0.009809 0.009809 0.009809 0.009809 0.009809 0.009809 0.009809 0.009809 0.009809 0.009809 0.009809 0.00981 0.00981 0.00981 0.00981 0.00981 0.00981 0.00981 
0.004718 0.004718 0.004718 0.004718 0.004717 0.004717 0.004717 0.004717 0.004717 0.004717 0.004717 0.004717 0.004718 0.004718 0.004718 0.004718 0.004718 0.004718 0.004718 0.004718 0.004718 
0.002088 0.002088 0.002088 0.002088 0.002088 0.002088 0.002088 0.002088 0.002088 0.002088 0.002088 0.002088 0.002088 0.002088 0.002088 0.002088 0.002088 0.002088 0.002088 0.002088 0.002088 
0.0008489 0.0008489 0.0008489 0.0008489 0.0008488 0.0008488 0.0008488 0.0008487 0.0008487 0.0008487 0.0008487 0.0008487 0.0008487 0.0008487 0.0008487 0.0008487 0.0008488 0.0008488 0.0008488 0.0008488 0.0008489 
0.0003165 0.0003165 0.0003165 0.0003165 0.0003165 0.0003165 0.0003165 0.0003165 0.0003164 0.0003164 0.0003164 0.0003164 0.0003164 0.0003164 0.0003164 0.0003164 0.0003164 0.0003164 0.0003165 0.0003165 0.0003165 
0.000108 0.000108 0.000108 0.000108 0.000108 0.000108 0.000108 0.000108 0.000108 0.000108 0.000108 0.000108 0.000108 0.000108 0.000108 0.000108 0.000108 0.000108 0.000108 0.000108 0.000108 
3.367e-05 3.368e-05 3.368e-05 3.368e-05 3.368e-05 3.368e-05 3.368e-05 3.368e-05 3.368e-05 3.368e-05 3.367e-05 3.367e-05 3.367e-05 3.367e-05 3.367e-05 3.367e-05 3.367e-05 3.367e-05 3.367e-05 3.367e-05 3.367e-05 
9.572e-06 9.572e-06 9.572e-06 9.573e-06 9.573e-06 9.573e-06 9.573e-06 9.574e-06 9.573e-06 9.573e-06 9.573e-06 9.572e-06 9.572e-06 9.572e-06 9.571e-06 9.571e-06 9.571e-06 9.571e-06 9.571e-06 9.571e-06 9.572e-06 
2.476e-06 2.476e-06 2.476e-06 2.476e-06 2.476e-06 2.476e-06 2.477e-06 2.477e-06 2.477e-06 2.477e-06 2.477e-06 2.476e-06 2.476e-06 2.476e-06 2.476e-06 2.476e-06 2.476e-06 2.476e-06 2.476e-06 2.476e-06 2.476e-06 
5.863e-07 5.863e-07 5.863e-07 5.864e-07 5.864e-07 5.864e-07 5.864e-07 5.864e-07 5.864e-07 5.864e-07 5.864e-07 5.864e-07 5.864e-07 5.864e-07 5.864e-07 5.863e-07 5.863e-07 5.863e-07 5.863e-07 5.863e-07 5.863e-07 
1.479e-07 1.479e-07 1.479e-07 1.479e-07 1.479e-07 1.479e-07 1.479e-07 1.479e-07 1.479e-07 1.479e-07 1.479e-07 1.479e-07 1.479e-07 1.479e-07 1.479e-07 1.479e-07 1.479e-07 1.479e-07 1.479e-07 1.479e-07 1.479e-07 
1.241e-07 1.241e-07 1.241e-07 1.241e-07 1.241e-07 1.241e-07 1.241e-07 1.241e-07 1.241e-07 1.241e-07 1.241e-07 1.241e-07 1.241e-07 1.241e-07 1.241e-07 1.241e-07 1.241e-07 1.241e-07 1.241e-07 1.241e-07 1.241e-07 
3.894e-07 3.894e-07 3.894e-07 3.894e-07 3.894e-07 3.894e-07 3.894e-07 3.894e-07 3.894e-07 3.894e-07 3.894e-07 3.894e-07 3.894e-07 3.894e-07 3.894e-07 3.894e-07 3.894e-07 3.895e-07 3.894e-07 3.894e-07 3.894e-07 
1.385e-06 1.385e-06 1.385e-06 1.385e-06 1.385e-06 1.385e-06 1.385e-06 1.385e-06 1.385e-06 1.385e-06 1.385e-06 1.385e-06 1.385e-06 1.385e-06 1.385e-06 1.385e-06 1.385e-06 1.385e-06 1.385e-06 1.385e-06 1.385e-06 
4.661e-06 4.661e-06 4.661e-06 4.661e-06 4.661e-06 4.661e-06 4.661e-06 4.661e-06 4.661e-06 4.661e-06 4.661e-06 4.661e-06 4.661e-06 4.661e-06 4.661e-06 4.661e-06 4.661e-06 4.661e-06 4.661e-06 4.661e-06 4.661e-06 
1.471e-05 1.471e-05 1.471e-05 1.471e-05 1.471e-05 1.471e-05 1.471e-05 1.471e-05 1.471e-05 1.471e-05 1.471e-05 1.471e-05 1.471e-05 1.471e-05 1.471e-05 1.471e-05 1.471e-05 1.471e-05 1.471e-05 1.471e-05 1.471e-05 
4.352e-05 4.352e-05 4.352e-05 4.352e-05 4.352e-05 4.352e-05 4.352e-05 4.352e-05 4.352e-05 4.352e-05 4.352e-05 4.352e-05 4.352e-05 4.352e-05 4.352e-05 4.352e-05 4.352e-05 4.352e-05 4.352e-05 4.352e-05 4.352e-05 
</DataArray>
<DataArray Name="E" NumberOfComponents="1" format="ascii" type="Float64">
-1.413 -1.413 -1.413 -1.413 -1.413 -1.413 -1.413 -1.413 -1.413 -1.413 -1.413 -1.413 -1.413 -1.413 -1.413 -1.413 -1.413 -1.413 -1.413 -1.413 -1.413 
-1.413 -1.413 -1.413 -1.413 -1.413 -1.413 -1.413 -1.413 -1.413 -1.413 -1.413 -1.413 -1.413 -1.413 -1.413 -1.413 -1.413 -1.413 -1.413 -1.413 -1.413 
-1.413 -1.413 -1.413 -1.413 -1.413 -1.413 -1.413 -1.413 -1.413 -1.413 -1.413 -1.413 -1.413 -1.413 -1.413 -1.413 -1.413 -1.413 -1.413 -1.413 -1.413 
-1.413 -1.413 -1.413 -1.413 -1.413 -1.413 -1.413 -1.413 -1.413 -1.413 -1.413 -1.413 -1.413 -1.413 -1.413 -1.413 -1.413 -1.413 -1.413 -1.413 -1.413 
-1.413 -1.413 -1.413 -1.413 -1.413 -1.413 -1.413 -1.413 -1.413 -1.413 -1.413 -1.413 -1.413 -1.413 -1.413 -1.413 -1.413 -1.413 -1.413 -1.413 -1.413 
-1.413 -1.413 -1.413 -1.413 -1.413 -1.413 -1.413 -1.413 -1.413 -1.413 -1.413 -1.413 -1.413 -1.413 -1.413 -1.413 -1.413 -1.413 -1.413 -1.413 -1.413 
-1.413 -1.413 -1.413 -1.413 -1.413 -1.413 -1.413 -1.413 -1.413 -1.413 -1.413 -1.413 -1.413 -1.413 -1.413 -1.413 -1.413 -1.413 -1.413 -1.413 -1.413 
-1.413 -1.413 -1.413 -1.413 -1.413 -1.413 -1.413 -1.413 -1.413 -1.413 -1.413 -1.413 -1.413 -1.413 -1.413 -1.413 -1.413 -1.413 -1.413 -1.413 -1.413 
-1.413 -1.413 -1.413 -1.413 -1.413 -1.413 -1.413 -1.413 -1.413 -1.413 -1.413 -1.413 -1.413 -1.413 -1.413 -1.413 -1.413 -1.413 -1.413 -1.413 -1.413 
-1.413 -1.413 -1.413 -1.413 -1.413 -1.413 -1.413 -1.413 -1.413 -1.413 -1.413 -1.413 -1.413 -1.413 -1.413 -1.413 -1.413 -1.413 -1.413 -1.413 -1.413 
-1.413 -1.413 -1.413 -1.413 -1.413 -1.413 -1.413 -1.413 -1.413 -1.413 -1.413 -1.413 -1.413 -1.413 -1.413 -1.413 -1.413 -1.413 -1.413 -1.413 -1.413 
-1.413 -1.413 -1.413 -1.413 -1.413 -1.413 -1.413 -1.413 -1.413 -1.413 -1.413 -1.413 -1.413 -1.413 -1.413 -1.413 -1.413 -1.413 -1.413 -1.413 -1.413 
-1.413 -1.413 -1.413 -1.413 -1.413 -1.413 -1.413 -1.413 -1.413 -1.413 -1.413 -1.413 -1.413 -1.413 -1.413 -1.413 -1.413 -1.413 -1.413 -1.413 -1.413 
-1.413 -1.413 -1.413 -1.413 -1.413 -1.413 -1.413 -1.413 -1.413 -1.413 -1.413 -1.413 -1.413 -1.413 -1.413 -1.413 -1.413 -1.413 -1.413 -1.413 -1.413 
-1.413 -1.413 -1.413 -1.413 -1.413 -1.413 -1.413 -1.413 -1.413 -1.413 -1.413 -1.413 -1.413 -1.413 -1.413 -1.413 -1.413 -1.413 -1.413 -1.413 -1.413 
-1.413 -1.413 -1.413 -1.413 -1.413 -1.413 -1.413 -1.413 -1.413 -1.413 -1.413 -1.413 -1.413 -1.413 -1.413 -1.413 -1.413 -1.413 -1.413 -1.413 -1.413 
-1.413 -1.413 -1.413 -1.413 -1.413 -1.413 -1.413 -1.413 -1.413 -1.413 -1.413 -1.413 -1.413 -1.413 -1.413 -1.413 -1.413 -1.413 -1.413 -1.413 -1.413 
-1.413 -1.413 -1.413 -1.413 -1.413 -1.413 -1.413 -1.413 -1.413 -1.413 -1.413 -1.413 -1.413 -1.413 -1.413 -1.413 -1.413 -1.413 -1.413 -1.413 -1.413 
-1.413 -1.413 -1.413 -1.413 -1.413 -1.413 -1.413 -1.413 -1.413 -1.413 -1.413 -1.413 -1.413 -1.413 -1.413 -1.413 -1.413 -1.413 -1.413 -1.413 -1.413 
-1.413 -1.413 -1.413 -1.413 -1.413 -1.413 -1.413 -1.413 -1.413 -1.413 -1.413 -1.413 -1.413 -1.413 -1.413 -1.413 -1.413 -1.413 -1.413 -1.413 -1.413 
-1.413 -1.413 -1.413 -1.413 -1.413 -1.413 -1.413 -1.413 -1.413 -1.413 -1.413 -1.413 -1.413 -1.413 -1.413 -1.413 -1.413 -1.413 -1.413 -1.413 -1.413 
-1.413 -1.413 -1.413 -1.413 -1.413 -1.413 -1.413 -1.413 -1.413 -1.413 -1.413 -1.413 -1.413 -1.413 -1.413 -1.413 -1.413 -1.413 -1.413 -1.413 -1.413 
-1.413 -1.413 -1.413 -1.413 -1.413 -1.413 -1.413 -1.413 -1.413 -1.413 -1.413 -1.413 -1.413 -1.413 -1.413 -1.413 -1.413 -1.413 -1.413 -1.413 -1.413 
-1.413 -1.413 -1.413 -1.413 -1.413 -1.413 -1.413 -1.413 -1.413 -1.413 -1.413 -1.413 -1.413 -1.413 -1.413 -1.413 -1.413 -1.413 -1.413 -1.413 -1.413 
-1.413 -1.413 -1.413 -1.413 -1.413 -1.413 -1.413 -1.413 -1.413 -1.413 -1.413 -1.413 -1.413 -1.413 -1.413 -1.413 -1.413 -1.413 -1.413 -1.413 -1.413 
-1.413 -1.413 -1.413 -1.413 -1.413 -1.413 -1.413 -1.413 -1.413 -1.413 -1.413 -1.413 -1.413 -1.413 -1.413 -1.413 -1.413 -1.413 -1.413 -1.413 -1.413 
-1.413 -1.413 -1.413 -1.413 -1.413 -1.413 -1.413 -1.413 -1.413 -1.413 -1.413 -1.413 -1.413 -1.413 -1.413 -1.413 -1.413 -1.413 -1.413 -1.413 -1.413 
-1.413 -1.413 -1.413 -1.413 -1.413 -1.413 -1.413 -1.413 -1.413 -1.413 -1.413 -1.413 -1.413 -1.413 -1.413 -1.413 -1.413 -1.413 -1.413 -1.413 -1.413 
-1.413 -1.413 -1.413 -1.413 -1.413 -1.413 -1.413 -1.413 -1.413 -1.413 -1.413 -1.413 -1.413 -1.413 -1.413 -1.413 -1.413 -1.413 -1.413 -1.413 -1.413 
-1.413 -1.413 -1.413 -1.413 -1.413 -1.413 -1.413 -1.413 -1.413 -1.413 -1.413 -1.413 -1.413 -1.413 -1.413 -1.413 -1.413 -1.413 -1.413 -1.413 -1.413 
-1.413 -1.413 -1.413 -1.413 -1.413 -1.413 -1.413 -1.413 -1.413 -1.413 -1.413 -1.413 -1.413 -1.413 -1.413 -1.413 -1.413 -1.413 -1.413 -1.413 -1.413 
-1.413 -1.413 -1.413 -1.413 -1.413 -1.413 -1.413 -1.413 -1.413 -1.413 -1.413 -1.413 -1.413 -1.413 -1.413 -1.413 -1.413 -1.413 -1.413 -1.413 -1.413 
-1.413 -1.413 -1.413 -1.413 -1.413 -1.413 -1.413 -1.413 -1.413 -1.413 -1.413 -1.413 -1.413 -1.413 -1.413 -1.413 -1.413 -1.413 -1.413 -1.413 -1.413 
-1.413 -1.413 -1.413 -1.413 -1.413 -1.413 -1.413 -1.413 -1.413 -1.413 -1.413 -1.413 -1.413 -1.413 -1.413 -1.413 -1.413 -1.413 -1.413 -1.413 -1.413 
-1.413 -1.413 -1.413 -1.413 -1.413 -1.413 -1.413 -1.413 -1.413 -1.413 -1.413 -1.413 -1.413 -1.413 -1.413 -1.413 -1.413 -1.413 -1.413 -1.413 -1.413 
-1.413 -1.413 -1.413 -1.413 -1.413 -1.413 -1.413 -1.413 -1.413 -1.413 -1.413 -1.413 -1.413 -1.413 -1.413 -1.413 -1.413 -1.413 -1.413 -1.413 -1.413 
-1.413 -1.413 -1.413 -1.413 -1.413 -1.413 -1.413 -1.413 -1.413 -1.413 -1.413 -1.413 -1.413 -1.413 -1.413 -1.413 -1.413 -1.413 -1.413 -1.413 -1.413 
-1.413 -1.413 -1.413 -1.413 -1.413 -1.413 -1.413 -1.413 -1.413 -1.413 -1.413 -1.413 -1.413 -1.413 -1.413 -1.413 -1.413 -1.413 -1.413 -1.413 -1.413 
-1.413 -1.413 -1.413 -1.413 -1.413 -1.413 -1.413 -1.413 -1.413 -1.413 -1.413 -1.413 -1.413 -1.413 -1.413 -1.413 -1.413 -1.413 -1.413 -1.413 -1.413 
-1.413 -1.413 -1.413 -1.413 -1.413 -1.413 -1.413 -1.413 -1.413 -1.413 -1.413 -1.413 -1.413 -1.413 -1.413 -1.413 -1.413 -1.413 -1.413 -1.413 -1.413 
-1.413 -1.413 -1.413 -1.413 -1.413 -1.413 -1.413 -1.413 -1.413 -1.413 -1.413 -1.413 -1.413 -1.413 -1.413 -1.413 -1.413 -1.413 -1.413 -1.413 -1.413 
</DataArray>
<DataArray Name="ne" NumberOfComponents="1" format="ascii" type="Float64">
0.9999 0.9999 0.9999 0.9999 0.9999 0.9999 0.9999 0.9999 0.9999 0.9999 0.9999 0.9999 0.9999 0.9999 0.9999 0.9999 0.9999 0.9999 0.9999 0.9999 0.9999 
0.9999 0.9999 0.9999 0.9999 0.9999 0.9999 0.9999 0.9999 0.9999 0.9999 0.9999 0.9999 0.9999 0.9999 0.9999 0.9999 0.9999 0.9999 0.9999 0.9999 0.9999 
0.9999 0.9999 0.9999 0.9999 0.9999 0.9999 0.9999 0.9999 0.9999 0.9999 0.9999 0.9999 0.9999 0.9999 0.9999 0.9999 0.9999 0.9999 0.9999 0.9999 0.9999 
0.9999 0.9999 0.9999 0.9999 0.9999 0.9999 0.9999 0.9999 0.9999 0.9999 0.9999 0.9999 0.9999 0.9999 0.9999 0.9999 0.9999 0.9999 0.9999 0.9999 0.9999 
0.9999 0.9999 0.9999 0.9999 0.9999 0.9999 0.9999 0.9999 0.9999 0.9999 0.9999 0.9999 0.9999 0.9999 0.9999 0.9999 0.9999 0.9999 0.9999 0.9999 0.9999 
0.9999 0.9999 0.9999 0.9999 0.9999 0.9999 0.9999 0.9999 0.9999 0.9999 0.9999 0.9999 0.9999 0.9999 0.9999 0.9999 0.9999 0.9999 0.9999 0.9999 0.9999 
0.9999 0.9999 0.9999 0.9999 0.9999 0.9999 0.9999 0.9999 0.9999 0.9999 0.9999 0.9999 0.9999 0.9999 0.9999 0.9999 0.9999 0.9999 0.9999 0.9999 0.9999 
0.9999 0.9999 0.9999 0.9999 0.9999 0.9999 0.9999 0.9999 0.9999 0.9999 0.9999 0.9999 0.9999 0.9999 0.9999 0.9999 0.9999 0.9999 0.9999 0.9999 0.9999 
0.9999 0.9999 0.9999 0.9999 0.9999 0.9999 0.9999 0.9999 0.9999 0.9999 0.9999 0.9999 0.9999 0.9999 0.9999 0.9999 0.9999 0.9999 0.9999 0.9999 0.9999 
0.9999 0.9999 0.9999 0.9999 0.9999 0.9999 0.9999 0.9999 0.9999 0.9999 0.9999 0.9999 0.9999 0.9999 0.9999 0.9999 0.9999 0.9999 0.9999 0.9999 0.9999 
0.9999 0.9999 0.9999 0.9999 0.9999 0.9999 0.9999 0.9999 0.9999 0.9999 0.9999 0.9999 0.9999 0.9999 0.9999 0.9999 0.9999 0.9999 0.9999 0.9999 0.9999 
0.9999 0.9999 0.9999 0.9999 0.9999 0.9999 0.9999 0.9999 0.9999 0.9999 0.9999 0.9999 0.9999 0.9999 0.9999 0.9999 0.9999 0.9999 0.9999 0.9999 0.9999 
0.9999 0.9999 0.9999 0.9999 0.9999 0.9999 0.9999 0.9999 0.9999 0.9999 0.9999 0.9999 0.9999 0.9999 0.9999 0.9999 0.9999 0.9999 0.9999 0.9999 0.9999 
0.9999 0.9999 0.9999 0.9999 0.9999 0.9999 0.9999 0.9999 0.9999 0.9999 0.9999 0.9999 0.9999 0.9999 0.9999 0.9999 0.9999 0.9999 0.9999 0.9999 0.9999 
0.9999 0.9999 0.9999 0.9999 0.9999 0.9999 0.9999 0.9999 0.9999 0.9999 0.9999 0.9999 0.9999 0.9999 0.9999 0.9999 0.9999 0.9999 0.9999 0.9999 0.9999 
0.9999 0.9999 0.9999 0.9999 0.9999 0.9999 0.9999 0.9999 0.9999 0.9999 0.9999 0.9999 0.9999 0.9999 0.9999 0.9999 0.9999 0.9999 0.9999 0.9999 0.9999 
0.9999 0.9999 0.9999 0.9999 0.9999 0.9999 0.9999 0.9999 0.9999 0.9999 0.9999 0.9999 0.9999 0.9999 0.9999 0.9999 0.9999 0.9999 0.9999 0.9999 0.9999 
0.9999 0.9999 0.9999 0.9999 0.9999 0.9999 0.9999 0.9999 0.9999 0.9999 0.9999 0.9999 0.9999 0.9999 0.9999 0.9999 0.9999 0.9999 0.9999 0.9999 0.9999 
0.9999 0.9999 0.9999 0.9999 0.9999 0.9999 0.9999 0.9999 0.9999 0.9999 0.9999 0.9999 0.9999 0.9999 0.9999 0.9999 0.9999 0.9999 0.9999 0.9999 0.9999 
0.9999 0.9999 0.9999 0.9999 0.9999 0.9999 0.9999 0.9999 0.9999 0.9999 0.9999 0.9999 0.9999 0.9999 0.9999 0.9999 0.9999 0.9999 0.9999 0.9999 0.9999 
0.9999 0.9999 0.9999 0.9999 0.9999 0.9999 0.9999 0.9999 0.9999 0.9999 0.9999 0.9999 0.9999 0.9999 0.9999 0.9999 0.9999 0.9999 0.9999 0.9999 0.9999 
0.9999 0.9999 0.9999 0.9999 0.9999 0.9999 0.9999 0.9999 0.9999 0.9999 0.9999 0.9999 0.9999 0.9999 0.9999 0.9999 0.9999 0.9999 0.9999 0.9999 0.9999 
0.9999 0.9999 0.9999 0.9999 0.9999 0.9999 0.9999 0.9999 0.9999 0.9999 0.9999 0.9999 0.9999 0.9999 0.9999 0.9999 0.9999 0.9999 0.9999 0.9999 0.9999 
0.9999 0.9999 0.9999 0.9999 0.9999 0.9999 0.9999 0.9999 0.9999 0.9999 0.9999 0.9999 0.9999 0.9999 0.9999 0.9999 0.9999 0.9999 0.9999 0.9999 0.9999 
0.9999 0.9999 0.9999 0.9999 0.9999 0.9999 0.9999 0.9999 0.9999 0.9999 0.9999 0.9999 0.9999 0.9999 0.9999 0.9999 0.9999 0.9999 0.9999 0.9999 0.9999 
0.9999 0.9999 0.9999 0.9999 0.9999 0.9999 0.9999 0.9999 0.9999 0.9999 0.9999 0.9999 0.9999 0.9999 0.9999 0.9999 0.9999 0.9999 0.9999 0.9999 0.9999 
0.9999 0.9999 0.9999 0.9999 0.9999 0.9999 0.9999 0.9999 0.9999 0.9999 0.9999 0.9999 0.9999 0.9999 0.9999 0.9999 0.9999 0.9999 0.9999 0.9999 0.9999 
0.9999 0.9999 0.9999 0.9999 0.9999 0.9999 0.9999 0.9999 0.9999 0.9999 0.9999 0.9999 0.9999 0.9999 0.9999 0.9999 0.9999 0.9999 0.9999 0.9999 0.9999 
0.9999 0.9999 0.9999 0.9999 0.9999 0.9999 0.9999 0.9999 0.9999 0.9999 0.9999 0.9999 0.9999 0.9999 0.9999 0.9999 0.9999 0.9999 0.9999 0.9999 0.9999 
0.9999 0.9999 0.9999 0.9999 0.9999 0.9999 0.9999 0.9999 0.9999 0.9999 0.9999 0.9999 0.9999 0.9999 0.9999 0.9999 0.9999 0.9999 0.9999 0.9999 0.9999 
0.9999 0.9999 0.9999 0.9999 0.9999 0.9999 0.9999 0.9999 0.9999 0.9999 0.9999 0.9999 0.9999 0.9999 0.9999 0.9999 0.9999 0.9999 0.9999 0.9999 0.9999 
0.9999 0.9999 0.9999 0.9999 0.9999 0.9999 0.9999 0.9999 0.9999 0.9999 0.9999 0.9999 0.9999 0.9999 0.9999 0.9999 0.9999 0.9999 0.9999 0.9999 0.9999 
0.9999 0.9999 0.9999 0.9999 0.9999 0.9999 0.9999 0.9999 0.9999 0.9999 0.9999 0.9999 0.9999 0.9999 0.9999 0.9999 0.9999 0.9999 0.9999 0.9999 0.9999 
0.9999 0.9999 0.9999 0.9999 0.9999 0.9999 0.9999 0.9999 0.9999 0.9999 0.9999 0.9999 0.9999 0.9999 0.9999 0.9999 0.9999 0.9999 0.9999 0.9999 0.9999 
0.9999 0.9999 0.9999 0.9999 0.9999 0.9999 0.9999 0.9999 0.9999 0.9999 0.9999 0.9999 0.9999 0.9999 0.9999 0.9999 0.9999 0.9999 0.9999 0.9999 0.9999 
0.9999 0.9999 0.9999 0.9999 0.9999 0.9999 0.9999 0.9999 0.9999 0.9999 0.9999 0.9999 0.9999 0.9999 0.9999 0.9999 0.9999 0.9999 0.9999 0.9999 0.9999 
0.9999 0.9999 0.9999 0.9999 0.9999 0.9999 0.9999 0.9999 0.9999 0.9999 0.9999 0.9999 0.9999 0.9999 0.9999 0.9999 0.9999 0.9999 0.9999 0.9999 0.9999 
0.9999 0.9999 0.9999 0.9999 0.9999 0.9999 0.9999 0.9999 0.9999 0.9999 0.9999 0.9999 0.9999 0.9999 0.9999 0.9999 0.9999 0.9999 0.9999 0.9999 0.9999 
0.9999 0.9999 0.9999 0.9999 0.9999 0.9999 0.9999 0.9999 0.9999 0.9999 0.9999 0.9999 0.9999 0.9999 0.9999 0.9999 0.9999 0.9999 0.9999 0.9999 0.9999 
0.9999 0.9999 0.9999 0.9999 0.9999 0.9999 0.9999 0.9999 0.9999 0.9999 0.9999 0.9999 0.9999 0.9999 0.9999 0.9999 0.9999 0.9999 0.9999 0.9999 0.9999 
0.9999 0.9999 0.9999 0.9999 0.9999 0.9999 0.9999 0.9999 0.9999 0.9999 0.9999 0.9999 0.9999 0.9999 0.9999 0.9999 0.9999 0.9999 0.9999 0.9999 0.9999 
</DataArray>
</PointData>
</Piece>
</ImageData>
</VTKFile>
