<VTKFile type="ImageData">
<ImageData Origin="0 -10 0" Spacing="0.5 0.5 1" WholeExtent="0 20 0 40 0 0">
<Piece Extent="0 20 0 40 0 0">
<PointData>
<DataArray Name="f" NumberOfComponents="1" format="ascii" type="Float64">
4.985e-07 4.985e-07 4.985e-07 4.985e-07 4.985e-07 4.985e-07 4.985e-07 4.985e-07 4.985e-07 4.985e-07 4.985e-07 4.985e-07 4.985e-07 4.985e-07 4.985e-07 4.985e-07 4.985e-07 4.985e-07 4.985e-07 4.985e-07 4.985e-07 
2.637e-06 2.637e-06 2.637e-06 2.637e-06 2.637e-06 2.637e-06 2.637e-06 2.637e-06 2.637e-06 2.637e-06 2.637e-06 2.637e-06 2.637e-06 2.637e-06 2.637e-06 2.637e-06 2.637e-06 2.637e-06 2.637e-06 2.637e-06 2.637e-06 
1.245e-05 1.245e-05 1.245e-05 1.245e-05 1.245e-05 1.245e-05 1.245e-05 1.245e-05 1.245e-05 1.245e-05 1.245e-05 1.245e-05 1.245e-05 1.245e-05 1.245e-05 1.245e-05 1.245e-05 1.245e-05 1.245e-05 1.245e-05 1.245e-05 
5.256e-05 5.256e-05 5.256e-05 5.256e-05 5.256e-05 5.256e-05 5.256e-05 5.256e-05 5.256e-05 5.256e-05 5.256e-05 5.256e-05 5.256e-05 5.256e-05 5.256e-05 5.256e-05 5.256e-05 5.256e-05 5.256e-05 5.256e-05 5.256e-05 
0.0001986 0.0001986 0.0001986 0.0001986 0.0001986 0.0001986 0.0001986 0.0001986 0.0001986 0.0001986 0.0001986 0.0001986 0.0001986 0.0001986 0.0001986 0.0001986 0.0001986 0.0001986 0.0001986 0.0001986 0.0001986 
0.0006726 0.0006726 0.0006726 0.0006726 0.0006726 0.0006726 0.0006726 0.0006726 0.0006726 0.0006726 0.0006726 0.0006726 0.0006726 0.0006726 0.0006726 0.0006726 0.0006726 0.0006726 0.0006726 0.0006726 0.0006726 
0.002041 0.002041 0.002041 0.002041 0.002041 0.002041 0.002041 0.002041 0.002041 0.002041 0.002041 0.002041 0.002041 0.002041 0.002041 0.002041 0.002041 0.002041 0.002041 0.002041 0.002041 
0.005553 0.005553 0.005553 0.005553 0.005553 0.005553 0.005553 0.005553 0.005553 0.005553 0.005553 0.005553 0.005553 0.005553 0.005553 0.005553 0.005553 0.005553 0.005553 0.005553 0.005553 
0.01353 0.01353 0.01353 0.01353 0.01353 0.01353 0.01353 0.01353 0.01353 0.01353 0.01353 0.01353 0.01353 0.01353 0.01353 0.01353 0.01353 0.01353 0.01353 0.01353 0.01353 
0.02954 0.02954 0.02954 0.02954 0.02954 0.02954 0.02954 0.02954 0.02954 0.02954 0.02954 0.02954 0.02954 0.02954 0.02954 0.02954 0.02954 0.02954 0.02954 0.02954 0.02954 
0.05766 0.05766 0.05766 0.05766 0.05766 0.05766 0.05766 0.05766 0.05766 0.05766 0.05766 0.05766 0.05766 0.05766 0.05766 0.05766 0.05766 0.05766 0.05766 0.05766 0.05766 
0.1005 0.1005 0.1005 0.1005 0.1005 0.1005 0.1005 0.1005 0.1005 0.1005 0.1005 0.1005 0.1005 0.1005 0.1005 0.1005 0.1005 0.1005 0.1005 0.1005 0.1005 
0.1561 0.1561 0.1561 0.1561 0.1561 0.1561 0.1561 0.1561 0.1561 0.1561 0.1561 0.1561 0.1561 0.1561 0.1561 0.1561 0.1561 0.1561 0.1561 0.1561 0.1561 
0.2157 0.2157 0.2157 0.2157 0.2157 0.2157 0.2157 0.2157 0.2157 0.2157 0.2157 0.2157 0.2157 0.2157 0.2157 0.2157 0.2157 0.2157 0.2157 0.2157 0.2157 
0.2641 0.2641 0.2641 0.2641 0.2641 0.2641 0.2641 0.2641 0.2641 0.2641 0.2641 0.2641 0.2641 0.2641 0.2641 0.2641 0.2641 0.2641 0.2641 0.2641 0.2641 
0.2859 0.2859 0.2859 0.2859 0.2859 0.2859 0.2859 0.2859 0.2859 0.2859 0.2859 0.2859 0.2859 0.2859 0.2859 0.2859 0.2859 0.2859 0.2859 0.2859 0.2859 
0.2723 0.2723 0.2723 0.2723 0.2723 0.2723 0.2723 0.2723 0.2723 0.2723 0.2723 0.2723 0.2723 0.2723 0.2723 0.2723 0.2723 0.2723 0.2723 0.2723 0.2723 
0.2274 0.2274 0.2274 0.2274 0.2274 0.2274 0.2274 0.2274 0.2274 0.2274 0.2274 0.2274 0.2274 0.2274 0.2274 0.2274 0.2274 0.2274 0.2274 0.2274 0.2274 
0.1655 0.1655 0.1655 0.1655 0.1655 0.1655 0.1655 0.1655 0.1655 0.1655 0.1655 0.1655 0.1655 0.1655 0.1655 0.1655 0.1655 0.1655 0.1655 0.1655 0.1655 
0.1045 0.1045 0.1045 0.1045 0.1045 0.1045 0.1045 0.1045 0.1045 0.1045 0.1045 0.1045 0.1045 0.1045 0.1045 0.1045 0.1045 0.1045 0.1045 0.1045 0.1045 
0.05689 0.05689 0.05689 0.05689 0.05689 0.05689 0.05689 0.05689 0.05689 0.05689 0.05689 0.05689 0.05689 0.05689 0.05689 0.05689 0.05689 0.05689 0.05689 0.05689 0.05689 
0.02652 0.02652 0.02652 0.02652 0.02652 0.02652 0.02652 0.02652 0.02652 0.02652 0.02652 0.02652 0.02652 0.02652 0.02652 0.02652 0.02652 0.02652 0.02652 0.02652 0.02652 
0.01051 0.01051 0.01051 0.01051 0.01051 0.01051 0.01051 0.01051 0.01051 0.01051 0.01051 0.01051 0.01051 0.01051 0.01051 0.01051 0.01051 0.01051 0.01051 0.01051 0.01051 
0.003515 0.003515 0.003515 0.003515 0.003515 0.003515 0.003515 0.003515 0.003515 0.003515 0.003515 0.003515 0.003515 0.003515 0.003515 0.003515 0.003515 0.003515 0.003515 0.003515 0.003515 
0.0009842 0.0009842 0.0009842 0.0009842 0.0009842 0.0009842 0.0009842 0.0009842 0.0009842 0.0009842 0.0009842 0.0009842 0.0009842 0.0009842 0.0009842 0.0009842 0.0009842 0.0009842 0.0009842 0.0009842 0.0009842 
0.000229 0.000229 0.000229 0.000229 0.000229 0.000229 0.000229 0.000229 0.000229 0.000229 0.000229 0.000229 0.000229 0.000229 0.000229 0.000229 0.000229 0.000229 0.000229 0.000229 0.000229 
4.391e-05 4.391e-05 4.391e-05 4.391e-05 4.391e-05 4.391e-05 4.391e-05 4.391e-05 4.391e-05 4.391e-05 4.391e-05 4.391e-05 4.391e-05 4.391e-05 4.391e-05 4.391e-05 4.391e-05 4.391e-05 4.391e-05 4.391e-05 4.391e-05 
6.888e-06 6.888e-06 6.888e-06 6.888e-06 6.888e-06 6.888e-06 6.888e-06 6.888e-06 6.888e-06 6.888e-06 6.888e-06 6.888e-06 6.888e-06 6.888e-06 6.888e-06 6.888e-06 6.888e-06 6.888e-06 6.888e-06 6.888e-06 6.888e-06 
8.775e-07 8.775e-07 8.775e-07 8.775e-07 8.775e-07 8.775e-07 8.775e-07 8.775e-07 8.775e-07 8.775e-07 8.775e-07 8.775e-07 8.775e-07 8.775e-07 8.775e-07 8.775e-07 8.775e-07 8.775e-07 8.775e-07 8.775e-07 8.775e-07 
9.02e-08 9.02e-08 9.02e-08 9.02e-08 9.02e-08 9.02e-08 9.02e-08 9.02e-08 9.02e-08 9.02e-08 9.02e-08 9.02e-08 9.02e-08 9.02e-08 9.02e-08 9.02e-08 9.02e-08 9.02e-08 9.02e-08 9.02e-08 9.02e-08 
7.436e-09 7.436e-09 7.436e-09 7.436e-09 7.436e-09 7.436e-09 7.436e-09 7.436e-09 7.436e-09 7.436e-09 7.436e-09 7.436e-09 7.436e-09 7.436e-09 7.436e-09 7.436e-09 7.436e-09 7.436e-09 7.436e-09 7.436e-09 7.436e-09 
4.891e-10 4.891e-10 4.891e-10 4.891e-10 4.891e-10 4.891e-10 4.891e-10 4.891e-10 4.891e-10 4.891e-10 4.891e-10 4.891e-10 4.891e-10 4.891e-10 4.891e-10 4.891e-10 4.891e-10 4.891e-10 4.891e-10 4.891e-10 4.891e-10 
2.556e-11 2.556e-11 2.556e-11 2.556e-11 2.556e-11 2.556e-11 2.556e-11 2.556e-11 2.556e-11 2.556e-11 2.556e-11 2.556e-11 2.556e-11 2.556e-11 2.556e-11 2.556e-11 2.556e-11 2.556e-11 2.556e-11 2.556e-11 2.556e-11 
1.066e-12 1.066e-12 1.066e-12 1.066e-12 1.066e-12 1.066e-12 1.066e-12 1.066e-12 1.066e-12 1.066e-12 1.066e-12 1.066e-12 1.066e-12 1.066e-12 1.066e-12 1.066e-12 1.066e-12 1.066e-12 1.066e-12 1.066e-12 1.066e-12 
1.768e-13 1.768e-13 1.768e-13 1.768e-13 1.768e-13 1.768e-13 1.768e-13 1.768e-13 1.768e-13 1.768e-13 1.768e-13 1.768e-13 1.768e-13 1.768e-13 1.768e-13 1.768e-13 1.768e-13 1.768e-13 1.768e-13 1.768e-13 1.768e-13 
1.813e-12 1.813e-12 1.813e-12 1.813e-12 1.813e-12 1.813e-12 1.813e-12 1.813e-12 1.813e-12 1.813e-12 1.813e-12 1.813e-12 1.813e-12 1.813e-12 1.813e-12 1.813e-12 1.813e-12 1.813e-12 1.813e-12 1.813e-12 1.813e-12 
2.01e-11 2.01e-11 2.01e-11 2.01e-11 2.01e-11 2.01e-11 2.01e-11 2.01e-11 2.01e-11 2.01e-11 2.01e-11 2.01e-11 2.01e-11 2.01e-11 2.01e-11 2.01e-11 2.01e-11 2.01e-11 2.01e-11 2.01e-11 2.01e-11 
1.951e-10 1.951e-10 1.951e-10 1.951e-10 1.951e-10 1.951e-10 1.951e-10 1.951e-10 1.951e-10 1.951e-10 1.951e-10 1.951e-10 1.951e-10 1.951e-10 1.951e-10 1.951e-10 1.951e-10 1.951e-10 1.951e-10 1.951e-10 1.951e-10 
1.667e-09 1.667e-09 1.667e-09 1.667e-09 1.667e-09 1.667e-09 1.667e-09 1.667e-09 1.667e-09 1.667e-09 1.667e-09 1.667e-09 1.667e-09 1.667e-09 1.667e-09 1.667e-09 1.667e-09 1.667e-09 1.667e-09 1.667e-09 1.667e-09 
1.257e-08 1.257e-08 1.257e-08 1.257e-08 1.257e-08 1.257e-08 1.257e-08 1.257e-08 1.257e-08 1.257e-08 1.257e-08 1.257e-08 1.257e-08 1.257e-08 1.257e-08 1.257e-08 1.257e-08 1.257e-08 1.257e-08 1.257e-08 1.257e-08 
8.397e-08 8.397e-08 8.397e-08 8.397e-08 8.397e-08 8.397e-08 8.397e-08 8.397e-08 8.397e-08 8.397e-08 8.397e-08 8.397e-08 8.397e-08 8.397e-08 8.397e-08 8.397e-08 8.397e-08 8.397e-08 8.397e-08 8.397e-08 8.397e-08 
</DataArray>
<DataArray Name="E" NumberOfComponents="1" format="ascii" type="Float64">
1 1 1 1 1 1 1 1 1 1 1 1 1 1 1 1 1 1 1 1 1 
1 1 1 1 1 1 1 1 1 1 1 1 1 1 1 1 1 1 1 1 1 
1 1 1 1 1 1 1 1 1 1 1 1 1 1 1 1 1 1 1 1 1 
1 1 1 1 1 1 1 1 1 1 1 1 1 1 1 1 1 1 1 1 1 
1 1 1 1 1 1 1 1 1 1 1 1 1 1 1 1 1 1 1 1 1 
1 1 1 1 1 1 1 1 1 1 1 1 1 1 1 1 1 1 1 1 1 
1 1 1 1 1 1 1 1 1 1 1 1 1 1 1 1 1 1 1 1 1 
1 1 1 1 1 1 1 1 1 1 1 1 1 1 1 1 1 1 1 1 1 
1 1 1 1 1 1 1 1 1 1 1 1 1 1 1 1 1 1 1 1 1 
1 1 1 1 1 1 1 1 1 1 1 1 1 1 1 1 1 1 1 1 1 
1 1 1 1 1 1 1 1 1 1 1 1 1 1 1 1 1 1 1 1 1 
1 1 1 1 1 1 1 1 1 1 1 1 1 1 1 1 1 1 1 1 1 
1 1 1 1 1 1 1 1 1 1 1 1 1 1 1 1 1 1 1 1 1 
1 1 1 1 1 1 1 1 1 1 1 1 1 1 1 1 1 1 1 1 1 
1 1 1 1 1 1 1 1 1 1 1 1 1 1 1 1 1 1 1 1 1 
1 1 1 1 1 1 1 1 1 1 1 1 1 1 1 1 1 1 1 1 1 
1 1 1 1 1 1 1 1 1 1 1 1 1 1 1 1 1 1 1 1 1 
1 1 1 1 1 1 1 1 1 1 1 1 1 1 1 1 1 1 1 1 1 
1 1 1 1 1 1 1 1 1 1 1 1 1 1 1 1 1 1 1 1 1 
1 1 1 1 1 1 1 1 1 1 1 1 1 1 1 1 1 1 1 1 1 
1 1 1 1 1 1 1 1 1 1 1 1 1 1 1 1 1 1 1 1 1 
1 1 1 1 1 1 1 1 1 1 1 1 1 1 1 1 1 1 1 1 1 
1 1 1 1 1 1 1 1 1 1 1 1 1 1 1 1 1 1 1 1 1 
1 1 1 1 1 1 1 1 1 1 1 1 1 1 1 1 1 1 1 1 1 
1 1 1 1 1 1 1 1 1 1 1 1 1 1 1 1 1 1 1 1 1 
1 1 1 1 1 1 1 1 1 1 1 1 1 1 1 1 1 1 1 1 1 
1 1 1 1 1 1 1 1 1 1 1 1 1 1 1 1 1 1 1 1 1 
1 1 1 1 1 1 1 1 1 1 1 1 1 1 1 1 1 1 1 1 1 
1 1 1 1 1 1 1 1 1 1 1 1 1 1 1 1 1 1 1 1 1 
1 1 1 1 1 1 1 1 1 1 1 1 1 1 1 1 1 1 1 1 1 
1 1 1 1 1 1 1 1 1 1 1 1 1 1 1 1 1 1 1 1 1 
1 1 1 1 1 1 1 1 1 1 1 1 1 1 1 1 1 1 1 1 1 
1 1 1 1 1 1 1 1 1 1 1 1 1 1 1 1 1 1 1 1 1 
1 1 1 1 1 1 1 1 1 1 1 1 1 1 1 1 1 1 1 1 1 
1 1 1 1 1 1 1 1 1 1 1 1 1 1 1 1 1 1 1 1 1 
1 1 1 1 1 1 1 1 1 1 1 1 1 1 1 1 1 1 1 1 1 
1 1 1 1 1 1 1 1 1 1 1 1 1 1 1 1 1 1 1 1 1 
1 1 1 1 1 1 1 1 1 1 1 1 1 1 1 1 1 1 1 1 1 
1 1 1 1 1 1 1 1 1 1 1 1 1 1 1 1 1 1 1 1 1 
1 1 1 1 1 1 1 1 1 1 1 1 1 1 1 1 1 1 1 1 1 
1 1 1 1 1 1 1 1 1 1 1 1 1 1 1 1 1 1 1 1 1 
</DataArray>
<DataArray Name="ne" NumberOfComponents="1" format="ascii" type="Float64">
1 1 1 1 1 1 1 1 1 1 1 1 1 1 1 1 1 1 1 1 1 
1 1 1 1 1 1 1 1 1 1 1 1 1 1 1 1 1 1 1 1 1 
1 1 1 1 1 1 1 1 1 1 1 1 1 1 1 1 1 1 1 1 1 
1 1 1 1 1 1 1 1 1 1 1 1 1 1 1 1 1 1 1 1 1 
1 1 1 1 1 1 1 1 1 1 1 1 1 1 1 1 1 1 1 1 1 
1 1 1 1 1 1 1 1 1 1 1 1 1 1 1 1 1 1 1 1 1 
1 1 1 1 1 1 1 1 1 1 1 1 1 1 1 1 1 1 1 1 1 
1 1 1 1 1 1 1 1 1 1 1 1 1 1 1 1 1 1 1 1 1 
1 1 1 1 1 1 1 1 1 1 1 1 1 1 1 1 1 1 1 1 1 
1 1 1 1 1 1 1 1 1 1 1 1 1 1 1 1 1 1 1 1 1 
1 1 1 1 1 1 1 1 1 1 1 1 1 1 1 1 1 1 1 1 1 
1 1 1 1 1 1 1 1 1 1 1 1 1 1 1 1 1 1 1 1 1 
1 1 1 1 1 1 1 1 1 1 1 1 1 1 1 1 1 1 1 1 1 
1 1 1 1 1 1 1 1 1 1 1 1 1 1 1 1 1 1 1 1 1 
1 1 1 1 1 1 1 1 1 1 1 1 1 1 1 1 1 1 1 1 1 
1 1 1 1 1 1 1 1 1 1 1 1 1 1 1 1 1 1 1 1 1 
1 1 1 1 1 1 1 1 1 1 1 1 1 1 1 1 1 1 1 1 1 
1 1 1 1 1 1 1 1 1 1 1 1 1 1 1 1 1 1 1 1 1 
1 1 1 1 1 1 1 1 1 1 1 1 1 1 1 1 1 1 1 1 1 
1 1 1 1 1 1 1 1 1 1 1 1 1 1 1 1 1 1 1 1 1 
1 1 1 1 1 1 1 1 1 1 1 1 1 1 1 1 1 1 1 1 1 
1 1 1 1 1 1 1 1 1 1 1 1 1 1 1 1 1 1 1 1 1 
1 1 1 1 1 1 1 1 1 1 1 1 1 1 1 1 1 1 1 1 1 
1 1 1 1 1 1 1 1 1 1 1 1 1 1 1 1 1 1 1 1 1 
1 1 1 1 1 1 1 1 1 1 1 1 1 1 1 1 1 1 1 1 1 
1 1 1 1 1 1 1 1 1 1 1 1 1 1 1 1 1 1 1 1 1 
1 1 1 1 1 1 1 1 1 1 1 1 1 1 1 1 1 1 1 1 1 
1 1 1 1 1 1 1 1 1 1 1 1 1 1 1 1 1 1 1 1 1 
1 1 1 1 1 1 1 1 1 1 1 1 1 1 1 1 1 1 1 1 1 
1 1 1 1 1 1 1 1 1 1 1 1 1 1 1 1 1 1 1 1 1 
1 1 1 1 1 1 1 1 1 1 1 1 1 1 1 1 1 1 1 1 1 
1 1 1 1 1 1 1 1 1 1 1 1 1 1 1 1 1 1 1 1 1 
1 1 1 1 1 1 1 1 1 1 1 1 1 1 1 1 1 1 1 1 1 
1 1 1 1 1 1 1 1 1 1 1 1 1 1 1 1 1 1 1 1 1 
1 1 1 1 1 1 1 1 1 1 1 1 1 1 1 1 1 1 1 1 1 
1 1 1 1 1 1 1 1 1 1 1 1 1 1 1 1 1 1 1 1 1 
1 1 1 1 1 1 1 1 1 1 1 1 1 1 1 1 1 1 1 1 1 
1 1 1 1 1 1 1 1 1 1 1 1 1 1 1 1 1 1 1 1 1 
1 1 1 1 1 1 1 1 1 1 1 1 1 1 1 1 1 1 1 1 1 
1 1 1 1 1 1 1 1 1 1 1 1 1 1 1 1 1 1 1 1 1 
1 1 1 1 1 1 1 1 1 1 1 1 1 1 1 1 1 1 1 1 1 
</DataArray>
</PointData>
</Piece>
</ImageData>
</VTKFile>
