<?xml version="1.0"?>
<VTKFile type="PolyData" version="0.1" byte_order="LittleEndian">
<PolyData>
<Piece NumberOfPoints="6000" NumberOfVerts="0" NumberOfLines="1" NumberOfStrip="0" NumberOfCells="0">
<Points>
<DataArray type="Float64" NumberOfComponents="3" format="ascii">
0 0 0
0 1e-07 0
-5.50688e-10 2e-07 0
-1.65206e-09 2.99997e-07 0
-3.30411e-09 3.99989e-07 0
-5.50681e-09 4.99972e-07 0
-8.26011e-09 5.99945e-07 0
-1.1564e-08 6.99904e-07 0
-1.54183e-08 7.99846e-07 0
-1.9823e-08 8.99768e-07 0
-2.4778e-08 9.99669e-07 0
-3.02833e-08 1.09955e-06 0
-3.63385e-08 1.19939e-06 0
-4.29438e-08 1.29921e-06 0
-5.00987e-08 1.399e-06 0
-5.78034e-08 1.49875e-06 0
-6.60574e-08 1.59846e-06 0
-7.48607e-08 1.69813e-06 0
-8.4213e-08 1.79775e-06 0
-9.41141e-08 1.89733e-06 0
-1.04564e-07 1.99686e-06 0
-1.15562e-07 2.09633e-06 0
-1.27108e-07 2.19576e-06 0
-1.39202e-07 2.29512e-06 0
-1.51843e-07 2.39442e-06 0
-1.65032e-07 2.49366e-06 0
-1.78767e-07 2.59284e-06 0
-1.93049e-07 2.69194e-06 0
-2.07877e-07 2.79098e-06 0
-2.23251e-07 2.88993e-06 0
-2.39171e-07 2.98882e-06 0
-2.55636e-07 3.08762e-06 0
-2.72645e-07 3.18634e-06 0
-2.90199e-07 3.28497e-06 0
-3.08296e-07 3.38352e-06 0
-3.26937e-07 3.48198e-06 0
-3.46121e-07 3.58034e-06 0
-3.65847e-07 3.67861e-06 0
-3.86115e-07 3.77678e-06 0
-4.06925e-07 3.87484e-06 0
-4.28276e-07 3.97281e-06 0
-4.50168e-07 4.07066e-06 0
-4.72599e-07 4.16841e-06 0
-4.9557e-07 4.26604e-06 0
-5.19079e-07 4.36356e-06 0
-5.43127e-07 4.46096e-06 0
-5.67713e-07 4.55825e-06 0
-5.92835e-07 4.6554e-06 0
-6.18494e-07 4.75244e-06 0
-6.44689e-07 4.84934e-06 0
-6.71419e-07 4.94611e-06 0
-6.98684e-07 5.04275e-06 0
-7.26482e-07 5.13925e-06 0
-7.54814e-07 5.23562e-06 0
-7.83678e-07 5.33184e-06 0
-8.13074e-07 5.42791e-06 0
-8.43001e-07 5.52384e-06 0
-8.73458e-07 5.61962e-06 0
-9.04445e-07 5.71525e-06 0
-9.3596e-07 5.81072e-06 0
-9.68004e-07 5.90604e-06 0
-1.00057e-06 6.00119e-06 0
-1.03367e-06 6.09618e-06 0
-1.0673e-06 6.19101e-06 0
-1.10144e-06 6.28566e-06 0
-1.13611e-06 6.38015e-06 0
-1.17131e-06 6.47446e-06 0
-1.20703e-06 6.5686e-06 0
-1.24326e-06 6.66255e-06 0
-1.28002e-06 6.75633e-06 0
-1.3173e-06 6.84992e-06 0
-1.3551e-06 6.94333e-06 0
-1.39341e-06 7.03654e-06 0
-1.43224e-06 7.12957e-06 0
-1.47159e-06 7.2224e-06 0
-1.51145e-06 7.31503e-06 0
-1.55183e-06 7.40746e-06 0
-1.59272e-06 7.4997e-06 0
-1.63412e-06 7.59172e-06 0
-1.67603e-06 7.68354e-06 0
-1.71845e-06 7.77515e-06 0
-1.76138e-06 7.86655e-06 0
-1.80481e-06 7.95773e-06 0
-1.84876e-06 8.04869e-06 0
-1.89321e-06 8.13944e-06 0
-1.93816e-06 8.22996e-06 0
-1.98362e-06 8.32026e-06 0
-2.02958e-06 8.41033e-06 0
-2.07603e-06 8.50017e-06 0
-2.12299e-06 8.58977e-06 0
-2.17045e-06 8.67915e-06 0
-2.21841e-06 8.76828e-06 0
-2.26686e-06 8.85717e-06 0
-2.31581e-06 8.94583e-06 0
-2.36525e-06 9.03423e-06 0
-2.41518e-06 9.12239e-06 0
-2.46561e-06 9.2103e-06 0
-2.51652e-06 9.29796e-06 0
-2.56793e-06 9.38536e-06 0
-2.61982e-06 9.4725e-06 0
-2.67219e-06 9.55939e-06 0
-2.72506e-06 9.64601e-06 0
-2.7784e-06 9.73237e-06 0
-2.83223e-06 9.81846e-06 0
-2.88654e-06 9.90428e-06 0
-2.94133e-06 9.98983e-06 0
-2.9966e-06 1.00751e-05 0
-3.05235e-06 1.01601e-05 0
-3.10857e-06 1.02448e-05 0
-3.16526e-06 1.03293e-05 0
-3.22243e-06 1.04134e-05 0
-3.28007e-06 1.04973e-05 0
-3.33818e-06 1.05809e-05 0
-3.39675e-06 1.06641e-05 0
-3.4558e-06 1.07471e-05 0
-3.51531e-06 1.08298e-05 0
-3.57528e-06 1.09122e-05 0
-3.63572e-06 1.09943e-05 0
-3.69662e-06 1.10761e-05 0
-3.75798e-06 1.11576e-05 0
-3.81979e-06 1.12388e-05 0
-3.88206e-06 1.13197e-05 0
-3.94479e-06 1.14003e-05 0
-4.00797e-06 1.14805e-05 0
-4.0716e-06 1.15605e-05 0
-4.13568e-06 1.16401e-05 0
-4.20021e-06 1.17194e-05 0
-4.26519e-06 1.17983e-05 0
-4.33062e-06 1.1877e-05 0
-4.39648e-06 1.19553e-05 0
-4.46279e-06 1.20333e-05 0
-4.52954e-06 1.2111e-05 0
-4.59673e-06 1.21883e-05 0
-4.66436e-06 1.22653e-05 0
-4.73242e-06 1.23419e-05 0
-4.80091e-06 1.24182e-05 0
-4.86984e-06 1.24942e-05 0
-4.9392e-06 1.25698e-05 0
-5.00898e-06 1.26451e-05 0
-5.0792e-06 1.272e-05 0
-5.14984e-06 1.27946e-05 0
-5.2209e-06 1.28688e-05 0
-5.29238e-06 1.29427e-05 0
-5.36428e-06 1.30162e-05 0
-5.4366e-06 1.30893e-05 0
-5.50934e-06 1.31621e-05 0
-5.58249e-06 1.32345e-05 0
-5.65606e-06 1.33066e-05 0
-5.73003e-06 1.33782e-05 0
-5.80442e-06 1.34496e-05 0
-5.87921e-06 1.35205e-05 0
-5.9544e-06 1.35911e-05 0
-6.03e-06 1.36613e-05 0
-6.10601e-06 1.37311e-05 0
-6.18241e-06 1.38005e-05 0
-6.2592e-06 1.38696e-05 0
-6.3364e-06 1.39382e-05 0
-6.41399e-06 1.40065e-05 0
-6.49197e-06 1.40744e-05 0
-6.57034e-06 1.41419e-05 0
-6.64909e-06 1.4209e-05 0
-6.72824e-06 1.42757e-05 0
-6.80777e-06 1.4342e-05 0
-6.88768e-06 1.44079e-05 0
-6.96797e-06 1.44735e-05 0
-7.04863e-06 1.45386e-05 0
-7.12968e-06 1.46033e-05 0
-7.2111e-06 1.46676e-05 0
-7.29289e-06 1.47315e-05 0
-7.37505e-06 1.4795e-05 0
-7.45757e-06 1.48581e-05 0
-7.54047e-06 1.49207e-05 0
-7.62373e-06 1.4983e-05 0
-7.70734e-06 1.50448e-05 0
-7.79132e-06 1.51062e-05 0
-7.87566e-06 1.51672e-05 0
-7.96035e-06 1.52278e-05 0
-8.0454e-06 1.52879e-05 0
-8.13079e-06 1.53477e-05 0
-8.21654e-06 1.5407e-05 0
-8.30263e-06 1.54658e-05 0
-8.38907e-06 1.55243e-05 0
-8.47585e-06 1.55823e-05 0
-8.56297e-06 1.56398e-05 0
-8.65043e-06 1.5697e-05 0
-8.73822e-06 1.57537e-05 0
-8.82635e-06 1.58099e-05 0
-8.91481e-06 1.58657e-05 0
-9.0036e-06 1.59211e-05 0
-9.09272e-06 1.5976e-05 0
-9.18216e-06 1.60305e-05 0
-9.27192e-06 1.60845e-05 0
-9.36201e-06 1.61381e-05 0
-9.45241e-06 1.61912e-05 0
-9.54313e-06 1.62439e-05 0
-9.63416e-06 1.62962e-05 0
-9.72551e-06 1.63479e-05 0
-9.81716e-06 1.63992e-05 0
-9.90912e-06 1.64501e-05 0
-1.00014e-05 1.65005e-05 0
-1.0094e-05 1.65504e-05 0
-1.01868e-05 1.65999e-05 0
-1.028e-05 1.66489e-05 0
-1.03735e-05 1.66974e-05 0
-1.04672e-05 1.67455e-05 0
-1.05613e-05 1.67931e-05 0
-1.06556e-05 1.68402e-05 0
-1.07502e-05 1.68869e-05 0
-1.08451e-05 1.6933e-05 0
-1.09403e-05 1.69788e-05 0
-1.10358e-05 1.7024e-05 0
-1.11315e-05 1.70687e-05 0
-1.12275e-05 1.7113e-05 0
-1.13238e-05 1.71568e-05 0
-1.14203e-05 1.72001e-05 0
-1.15172e-05 1.72429e-05 0
-1.16143e-05 1.72853e-05 0
-1.17116e-05 1.73271e-05 0
-1.18092e-05 1.73685e-05 0
-1.19071e-05 1.74094e-05 0
-1.20052e-05 1.74498e-05 0
-1.21036e-05 1.74897e-05 0
-1.22022e-05 1.75291e-05 0
-1.23011e-05 1.7568e-05 0
-1.24002e-05 1.76064e-05 0
-1.24995e-05 1.76443e-05 0
-1.25991e-05 1.76818e-05 0
-1.2699e-05 1.77187e-05 0
-1.2799e-05 1.77551e-05 0
-1.28993e-05 1.7791e-05 0
-1.29999e-05 1.78265e-05 0
-1.31006e-05 1.78614e-05 0
-1.32016e-05 1.78958e-05 0
-1.33028e-05 1.79297e-05 0
-1.34042e-05 1.79631e-05 0
-1.35059e-05 1.7996e-05 0
-1.36077e-05 1.80284e-05 0
-1.37098e-05 1.80603e-05 0
-1.38121e-05 1.80916e-05 0
-1.39146e-05 1.81225e-05 0
-1.40172e-05 1.81528e-05 0
-1.41201e-05 1.81826e-05 0
-1.42232e-05 1.8212e-05 0
-1.43265e-05 1.82408e-05 0
-1.443e-05 1.8269e-05 0
-1.45337e-05 1.82968e-05 0
-1.46375e-05 1.8324e-05 0
-1.47416e-05 1.83508e-05 0
-1.48458e-05 1.8377e-05 0
-1.49502e-05 1.84026e-05 0
-1.50548e-05 1.84278e-05 0
-1.51596e-05 1.84524e-05 0
-1.52645e-05 1.84765e-05 0
-1.53697e-05 1.85001e-05 0
-1.54749e-05 1.85232e-05 0
-1.55804e-05 1.85457e-05 0
-1.5686e-05 1.85677e-05 0
-1.57918e-05 1.85892e-05 0
-1.58977e-05 1.86101e-05 0
-1.60038e-05 1.86305e-05 0
-1.611e-05 1.86504e-05 0
-1.62164e-05 1.86697e-05 0
-1.63229e-05 1.86886e-05 0
-1.64296e-05 1.87068e-05 0
-1.65364e-05 1.87246e-05 0
-1.66434e-05 1.87418e-05 0
-1.67505e-05 1.87585e-05 0
-1.68577e-05 1.87746e-05 0
-1.69651e-05 1.87902e-05 0
-1.70725e-05 1.88053e-05 0
-1.71802e-05 1.88198e-05 0
-1.72879e-05 1.88338e-05 0
-1.73957e-05 1.88473e-05 0
-1.75037e-05 1.88602e-05 0
-1.76118e-05 1.88726e-05 0
-1.772e-05 1.88844e-05 0
-1.78283e-05 1.88957e-05 0
-1.79367e-05 1.89064e-05 0
-1.80452e-05 1.89166e-05 0
-1.81539e-05 1.89263e-05 0
-1.82626e-05 1.89354e-05 0
-1.83714e-05 1.8944e-05 0
-1.84803e-05 1.8952e-05 0
-1.85893e-05 1.89595e-05 0
-1.86984e-05 1.89664e-05 0
-1.88075e-05 1.89728e-05 0
-1.89168e-05 1.89787e-05 0
-1.90261e-05 1.8984e-05 0
-1.91355e-05 1.89887e-05 0
-1.9245e-05 1.89929e-05 0
-1.93546e-05 1.89966e-05 0
-1.94642e-05 1.89997e-05 0
-1.95739e-05 1.90022e-05 0
-1.96836e-05 1.90043e-05 0
-1.97934e-05 1.90057e-05 0
-1.99033e-05 1.90066e-05 0
-2.00132e-05 1.9007e-05 0
-2.01232e-05 1.90068e-05 0
-2.02332e-05 1.9006e-05 0
-2.03433e-05 1.90048e-05 0
-2.04534e-05 1.90029e-05 0
-2.05635e-05 1.90005e-05 0
-2.06737e-05 1.89976e-05 0
-2.07839e-05 1.89941e-05 0
-2.08942e-05 1.899e-05 0
-2.10045e-05 1.89854e-05 0
-2.11148e-05 1.89803e-05 0
-2.12251e-05 1.89746e-05 0
-2.13355e-05 1.89683e-05 0
-2.14459e-05 1.89615e-05 0
-2.15563e-05 1.89541e-05 0
-2.16667e-05 1.89462e-05 0
-2.17771e-05 1.89377e-05 0
-2.18875e-05 1.89287e-05 0
-2.1998e-05 1.89191e-05 0
-2.21084e-05 1.8909e-05 0
-2.22188e-05 1.88983e-05 0
-2.23293e-05 1.88871e-05 0
-2.24397e-05 1.88753e-05 0
-2.25501e-05 1.8863e-05 0
-2.26605e-05 1.88501e-05 0
-2.27709e-05 1.88366e-05 0
-2.28813e-05 1.88226e-05 0
-2.29916e-05 1.88081e-05 0
-2.31019e-05 1.8793e-05 0
-2.32122e-05 1.87773e-05 0
-2.33225e-05 1.87611e-05 0
-2.34328e-05 1.87444e-05 0
-2.3543e-05 1.87271e-05 0
-2.36531e-05 1.87092e-05 0
-2.37633e-05 1.86908e-05 0
-2.38734e-05 1.86718e-05 0
-2.39834e-05 1.86523e-05 0
-2.40934e-05 1.86322e-05 0
-2.42034e-05 1.86116e-05 0
-2.43133e-05 1.85905e-05 0
-2.44231e-05 1.85687e-05 0
-2.45329e-05 1.85465e-05 0
-2.46426e-05 1.85237e-05 0
-2.47523e-05 1.85003e-05 0
-2.48618e-05 1.84764e-05 0
-2.49714e-05 1.84519e-05 0
-2.50808e-05 1.84269e-05 0
-2.51902e-05 1.84013e-05 0
-2.52995e-05 1.83752e-05 0
-2.54087e-05 1.83486e-05 0
-2.55178e-05 1.83214e-05 0
-2.56269e-05 1.82936e-05 0
-2.57358e-05 1.82653e-05 0
-2.58447e-05 1.82365e-05 0
-2.59534e-05 1.82071e-05 0
-2.60621e-05 1.81772e-05 0
-2.61707e-05 1.81467e-05 0
-2.62792e-05 1.81157e-05 0
-2.63875e-05 1.80841e-05 0
-2.64958e-05 1.8052e-05 0
-2.66039e-05 1.80194e-05 0
-2.6712e-05 1.79862e-05 0
-2.68199e-05 1.79525e-05 0
-2.69277e-05 1.79182e-05 0
-2.70353e-05 1.78834e-05 0
-2.71429e-05 1.7848e-05 0
-2.72503e-05 1.78122e-05 0
-2.73576e-05 1.77757e-05 0
[...]
<PointData>
<DataArray Name="vel" type="Float64" NumberOfComponents="3" format="ascii">
0 100000 0
-550.688 100000 0
-1101.38 99997.2 0
-1652.05 99991.7 0
-2202.69 99983.5 0
-2753.3 99972.4 0
-3303.85 99958.6 0
-3854.33 99942.1 0
-4404.73 99922.8 0
-4955.03 99900.8 0
-5505.22 99876 0
-6055.29 99848.4 0
-6605.21 99818.1 0
-7154.99 99785 0
-7704.6 99749.2 0
-8254.03 99710.6 0
-8803.27 99669.3 0
-9352.3 99625.2 0
-9901.12 99578.4 0
-10449.7 99528.8 0
-10998 99476.5 0
-11546.1 99421.5 0
-12093.9 99363.7 0
-12641.4 99303.1 0
-13188.6 99239.8 0
-13735.5 99173.8 0
-14282 99105 0
-14828.2 99033.5 0
-15374.1 98959.3 0
-15919.5 98882.3 0
-16464.6 98802.7 0
-17009.3 98720.2 0
-17553.6 98635.1 0
-18097.5 98547.2 0
-18640.9 98456.6 0
-19183.8 98363.3 0
-19726.3 98267.2 0
-20268.3 98168.5 0
-20809.9 98067 0
-21350.9 97962.8 0
-21891.4 97855.9 0
-22431.3 97746.3 0
-22970.7 97634.1 0
-23509.6 97519.1 0
-24047.8 97401.4 0
-24585.5 97281 0
-25122.6 97157.9 0
-25659 97032.1 0
-26194.9 96903.7 0
-26730.1 96772.5 0
-27264.6 96638.7 0
-27798.5 96502.2 0
-28331.6 96363 0
-28864.1 96221.2 0
-29395.9 96076.7 0
-29926.9 95929.5 0
-30457.2 95779.7 0
-30986.8 95627.3 0
-31515.6 95472.1 0
-32043.6 95314.3 0
-32570.8 95153.9 0
-33097.3 94990.9 0
-33622.9 94825.2 0
-34147.7 94656.9 0
-34671.6 94485.9 0
-35194.7 94312.3 0
-35716.9 94136.1 0
-36238.2 93957.3 0
-36758.7 93775.9 0
-37278.2 93591.9 0
-37796.8 93405.3 0
-38314.5 93216 0
-38831.2 93024.2 0
-39347 92829.8 0
-39861.8 92632.9 0
-40375.6 92433.3 0
-40888.4 92231.2 0
-41400.2 92026.5 0
-41910.9 91819.2 0
-42420.7 91609.4 0
-42929.3 91397 0
-43437 91182.1 0
-43943.5 90964.6 0
-44449 90744.7 0
-44953.3 90522.1 0
-45456.6 90297.1 0
-45958.7 90069.5 0
-46459.6 89839.4 0
-46959.5 89606.9 0
-47458.1 89371.8 0
-47955.6 89134.2 0
-48451.9 88894.1 0
-48947 88651.5 0
-49440.9 88406.5 0
-49933.5 88159 0
-50424.9 87909 0
-50915.1 87656.6 0
-51404 87401.7 0
-51891.6 87144.3 0
-52377.9 86884.5 0
-52862.9 86622.3 0
-53346.6 86357.7 0
-53829 86090.6 0
-54310.1 85821.1 0
-54789.8 85549.2 0
-55268.1 85275 0
-55745.1 84998.3 0
-56220.7 84719.2 0
-56694.9 84437.7 0
-57167.7 84153.9 0
-57639 83867.7 0
-58108.9 83579.2 0
-58577.4 83288.2 0
-59044.4 82995 0
-59510 82699.4 0
-59974.1 82401.5 0
-60436.7 82101.2 0
-60897.7 81798.7 0
-61357.3 81493.8 0
-61815.4 81186.6 0
-62271.9 80877.2 0
-62726.8 80565.4 0
-63180.2 80251.4 0
-63632 79935.1 0
-64082.3 79616.5 0
-64530.9 79295.7 0
-64977.9 78972.7 0
-65423.4 78647.4 0
-65867.2 78319.9 0
-66309.3 77990.1 0
-66749.8 77658.1 0
-67188.6 77324 0
-67625.8 76987.6 0
-68061.3 76649.1 0
-68495.1 76308.3 0
-68927.2 75965.4 0
-69357.5 75620.4 0
-69786.2 75273.1 0
-70213.1 74923.8 0
-70638.2 74572.3 0
-71061.6 74218.6 0
-71483.2 73862.9 0
-71903.1 73505 0
-72321.1 73145.1 0
-72737.4 72783 0
-73151.8 72418.9 0
-73564.4 72052.6 0
-73975.2 71684.4 0
-74384.1 71314 0
-74791.2 70941.6 0
-75196.4 70567.2 0
-75599.7 70190.8 0
-76001.2 69812.3 0
-76400.7 69431.8 0
-76798.4 69049.3 0
-77194.1 68664.9 0
-77588 68278.4 0
-77979.8 67890 0
-78369.8 67499.6 0
-78757.8 67107.3 0
-79143.8 66713 0
-79527.8 66316.8 0
-79909.9 65918.6 0
-80290 65518.6 0
-80668 65116.6 0
-81044.1 64712.8 0
-81418.1 64307.1 0
-81790.1 63899.5 0
-82160.1 63490 0
-82528 63078.7 0
-82893.8 62665.5 0
-83257.6 62250.5 0
-83619.3 61833.7 0
-83978.9 61415.1 0
-84336.4 60994.7 0
-84691.9 60572.5 0
-85045.2 60148.5 0
-85396.3 59722.7 0
-85745.4 59295.2 0
-86092.3 58866 0
-86437.1 58435 0
-86779.7 58002.2 0
-87120.1 57567.8 0
-87458.4 57131.6 0
-87794.4 56693.8 0
-88128.3 56254.3 0
-88460 55813.1 0
-88789.5 55370.2 0
-89116.7 54925.7 0
-89441.8 54479.6 0
-89764.6 54031.8 0
-90085.1 53582.4 0
-90403.5 53131.5 0
-90719.5 52678.9 0
-91033.3 52224.7 0
-91344.8 51769 0
-91654 51311.7 0
-91961 50852.8 0
-92265.6 50392.5 0
-92568 49930.5 0
-92868 49467.1 0
-93165.7 49002.2 0
-93461.1 48535.8 0
-93754.1 48067.9 0
-94044.8 47598.6 0
-94333.2 47127.7 0
-94619.2 46655.5 0
-94902.8 46181.8 0
-95184.1 45706.7 0
-95462.9 45230.2 0
-95739.4 44752.3 0
-96013.5 44273 0
-96285.2 43792.3 0
-96554.5 43310.3 0
-96821.4 42826.9 0
-97085.9 42342.2 0
-97347.9 41856.1 0
-97607.5 41368.8 0
-97864.7 40880.2 0
-98119.4 40390.2 0
-98371.7 39899 0
-98621.5 39406.5 0
-98868.8 38912.8 0
-99113.7 38417.8 0
-99356.1 37921.7 0
-99596 37424.3 0
-99833.4 36925.7 0
-100068 36425.9 0
-100301 35924.9 0
-100531 35422.8 0
-100758 34919.5 0
-100983 34415.1 0
-101205 33909.5 0
-101425 33402.9 0
-101642 32895.1 0
-101857 32386.3 0
-102069 31876.3 0
-102279 31365.3 0
-102486 30853.3 0
-102691 30340.2 0
-102893 29826.1 0
-103092 29311 0
-103289 28794.9 0
-103483 28277.8 0
-103675 27759.8 0
-103864 27240.8 0
-104050 26720.8 0
-104234 26199.9 0
-104415 25678.1 0
-104594 25155.3 0
-104770 24631.7 0
-104943 24107.2 0
-105114 23581.9 0
-105282 23055.6 0
-105447 22528.6 0
-105610 22000.7 0
-105771 21471.9 0
-105928 20942.4 0
-106083 20412.1 0
-106235 19881.1 0
-106385 19349.2 0
-106532 18816.6 0
-106676 18283.3 0
-106818 17749.3 0
-106957 17214.5 0
-107093 16679 0
-107226 16142.9 0
-107357 15606.1 0
-107485 15068.7 0
-107611 14530.6 0
-107734 13991.8 0
-107854 13452.5 0
-107971 12912.5 0
-108086 12372 0
-108198 11830.9 0
-108307 11289.2 0
-108414 10747 0
-108518 10204.3 0
-108619 9661.02 0
-108717 9117.25 0
-108813 8572.98 0
-108906 8028.24 0
-108996 7483.03 0
-109084 6937.36 0
-109168 6391.26 0
-109251 5844.74 0
-109330 5297.8 0
-109406 4750.47 0
-109480 4202.75 0
-109551 3654.67 0
-109620 3106.23 0
-109685 2557.44 0
-109748 2008.33 0
-109808 1458.9 0
-109866 909.176 0
-109920 359.161 0
-109972 -191.128 0
-110021 -741.676 0
-110068 -1292.47 0
-110111 -1843.5 0
-110152 -2394.74 0
-110190 -2946.19 0
-110225 -3497.83 0
-110258 -4049.65 0
-110288 -4601.62 0
-110315 -5153.75 0
-110339 -5706.02 0
-110361 -6258.4 0
-110379 -6810.89 0
-110395 -7363.48 0
-110408 -7916.15 0
-110419 -8468.88 0
-110427 -9021.66 0
-110431 -9574.49 0
-110434 -10127.3 0
-110433 -10680.2 0
-110430 -11233 0
-110423 -11785.9 0
-110414 -12338.7 0
-110403 -12891.5 0
-110388 -13444.2 0
-110371 -13996.8 0
-110351 -14549.3 0
-110328 -15101.8 0
-110303 -15654.1 0
-110274 -16206.3 0
-110243 -16758.4 0
-110209 -17310.3 0
-110173 -17862 0
-110134 -18413.6 0
-110091 -18964.9 0
-110047 -19516.1 0
-109999 -20067 0
-109948 -20617.7 0
-109895 -21168.1 0
-109839 -21718.3 0
-109781 -22268.1 0
-109719 -22817.7 0
-109655 -23367 0
-109588 -23916 0
-109519 -24464.6 0
-109446 -25012.9 0
-109371 -25560.8 0
-109293 -26108.3 0
-109212 -26655.5 0
-109129 -27202.2 0
-109043 -27748.6 0
-108954 -28294.5 0
-108863 -28839.9 0
-108768 -29384.9 0
-108671 -29929.4 0
-108571 -30473.5 0
-108469 -31017 0
-108364 -31560 0
-108256 -32102.5 0
-108145 -32644.5 0
-108032 -33185.9 0
-107916 -33726.7 0
-107797 -34267 0
-107675 -34806.6 0
-107551 -35345.7 0
-107424 -35884.1 0
-107295 -36421.9 0
-107162 -36959 0
-107028 -37495.5 0
-106890 -38031.3 0
-106750 -38566.4 0
-106607 -39100.9 0
-106461 -39634.5 0
-106312 -40167.5 0
-106161 -40699.7 0
-106008 -41231.2 0
-105851 -41761.9 0
-105692 -42291.8 0
-105531 -42821 0
-105366 -43349.3 0
-105199 -43876.8 0
-105030 -44403.4 0
-104858 -44929.2 0
-104683 -45454.2 0
-104505 -45978.2 0
-104325 -46501.4 0
-104142 -47023.7 0
-103957 -47545.1 0
-103769 -48065.5 0
-103579 -48585 0
-103385 -49103.5 0
-103190 -49621.1 0
-102991 -50137.7 0
-102790 -50653.3 0
-102587 -51167.9 0
-102381 -51681.5 0
-102172 -52194 0
-101961 -52705.5 0
-101747 -53215.9 0
-101531 -53725.3 0
-101312 -54233.6 0
-101090 -54740.8 0
-100866 -55246.9 0
-100640 -55751.8 0
-100411 -56255.7 0
-100179 -56758.3 0
-99945.1 -57259.9 0
-99708.5 -57760.2 0
-99469.4 -58259.4 0
-99227.8 -58757.4 0
-98983.7 -59254.1 0
-98737.2 -59749.7 0
-98488.1 -60244 0
-98236.6 -60737 0
-97982.6 -61228.8 0
-97726.1 -61719.3 0
-97467.2 -62208.6 0
-97205.8 -62696.5 0
-96942 -63183.2 0
-96675.8 -63668.5 0
-96407.1 -64152.5 0
-96136 -64635.1 0
-95862.5 -65116.4 0
-95586.5 -65596.3 0
-95308.2 -66074.8 0
-95027.5 -66552 0
-94744.4 -67027.7 0
-94458.9 -67502 0
-94171 -67974.9 0
-93880.8 -68446.3 0
-93588.2 -68916.3 0
-93293.2 -69384.8 0
-92995.9 -69851.9 0
-92696.3 -70317.5 0
-92394.3 -70781.5 0
-92090 -71244.1 0
-91783.4 -71705.1 0
-91474.5 -72164.6 0
-91163.3 -72622.5 0
-90849.8 -73078.9 0
-90534 -73533.7 0
-90216 -73987 0
-89895.6 -74438.6 0
-89573 -74888.6 0
-89248.2 -75337.1 0
-88921.1 -75783.9 0
-88591.8 -76229 0
-88260.2 -76672.5 0
-87926.4 -77114.4 0
-87590.4 -77554.6 0
-87252.2 -77993.1 0
-86911.8 -78429.9 0
-86569.3 -78865 0
-86224.5 -79298.4 0
-85877.6 -79730 0
-85528.5 -80160 0
-85177.3 -80588.1 0
-84823.9 -81014.6 0
-84468.4 -81439.2 0
-84110.7 -81862.1 0
-83751 -82283.2 0
-83389.1 -82702.4 0
-83025.1 -83119.9 0
-82659.1 -83535.5 0
-82290.9 -83949.4 0
-81920.7 -84361.3 0
-81548.4 -84771.4 0
-81174.1 -85179.7 0
-80797.8 -85586.1 0
-80419.3 -85990.6 0
-80038.9 -86393.2 0
-79656.5 -86793.9 0
-79272 -87192.6 0
-78885.6 -87589.5 0
-78497.2 -87984.4 0
-78106.7 -88377.4 0
-77714.4 -88768.4 0
-77320 -89157.5 0
-76923.7 -89544.6 0
-76525.5 -89929.7 0
-76125.4 -90312.8 0
-75723.3 -90693.9 0
-75319.3 -91073 0
-74913.5 -91450 0
-74505.7 -91825.1 0
-74096.1 -92198 0
-73684.6 -92569 0
-73271.2 -92937.9 0
-72856 -93304.7 0
-72439 -93669.4 0
-72020.1 -94032.1 0
-71599.4 -94392.6 0
-71176.9 -94751.1 0
-70752.6 -95107.4 0
-70326.6 -95461.6 0
-69898.7 -95813.7 0
-69469.1 -96163.6 0
-69037.8 -96511.4 0
-68604.7 -96857 0
-68169.8 -97200.5 0
-67733.3 -97541.7 0
-67295 -97880.8 0
-66855.1 -98217.7 0
-66413.4 -98552.4 0
-65970.1 -98884.9 0
-65525.1 -99215.2 0
-65078.5 -99543.2 0
-64630.2 -99869 0
-64180.3 -100193 0
-63728.8 -100514 0
-63275.7 -100833 0
-62820.9 -101150 0
-62364.6 -101464 0
-61906.7 -101776 0
-61447.3 -102086 0
-60986.3 -102394 0
-60523.7 -102699 0
-60059.6 -103002 0
-59594 -103303 0
-59126.9 -103601 0
-58658.4 -103897 0
-58188.3 -104191 0
-57716.7 -104482 0
-57243.7 -104771 0
-56769.3 -105058 0
-56293.4 -105342 0
-55816.1 -105624 0
-55337.4 -105903 0
-54857.3 -106180 0
-54375.8 -106455 0
-53892.9 -106727 0
-53408.6 -106997 0
-52923.1 -107264 0
-52436.1 -107529 0
-51947.9 -107792 0
-51458.3 -108052 0
-50967.4 -108309 0
-50475.3 -108565 0
-49981.8 -108817 0
-49487.1 -109067 0
-48991.2 -109315 0
-48494 -109560 0
-47995.5 -109803 0
-47495.9 -110043 0
-46995.1 -110281 0
-46493 -110517 0
-45989.8 -110749 0
-45485.4 -110980 0
-44979.9 -111207 0
-44473.2 -111432 0
-43965.5 -111655 0
-43456.5 -111875 0
-42946.5 -112093 0
-42435.4 -112308 0
-41923.2 -112520 0
-41410 -112730 0
-40895.7 -112937 0
-40380.4 -113142 0
-39864 -113344 0
-39346.7 -113544 0
-38828.3 -113741 0
-38308.9 -113935 0
-37788.6 -114127 0
-37267.3 -114316 0
-36745.1 -114503 0
-36221.9 -114687 0
-35697.8 -114868 0
-35172.8 -115047 0
-34647 -115223 0
-34120.2 -115396 0
-33592.5 -115567 0
-33064.1 -115735 0
-32534.7 -115901 0
-32004.6 -116064 0
-31473.6 -116224 0
-30941.8 -116381 0
-30409.2 -116536 0
-29875.9 -116689 0
-29341.8 -116838 0
-28806.9 -116985 0
-28271.3 -117129 0
-27735 -117271 0
-27198 -117410 0
-26660.2 -117546 0
-26121.8 -117679 0
-25582.8 -117810 0
-25043.1 -117938 0
-24502.7 -118063 0
-23961.7 -118186 0
-23420.1 -118306 0
-22877.9 -118423 0
-22335.1 -118538 0
-21791.7 -118650 0
-21247.8 -118759 0
-20703.3 -118865 0
-20158.3 -118969 0
-19612.8 -119070 0
-19066.8 -119168 0
-18520.2 -119263 0
-17973.2 -119356 0
-17425.8 -119446 0
-16877.9 -119533 0
-16329.5 -119618 0
-15780.7 -119700 0
-15231.5 -119779 0
-14682 -119855 0
-14132 -119928 0
-13581.7 -119999 0
-13031 -120067 0
-12480 -120132 0
-11928.6 -120195 0
-11377 -120254 0
-10825 -120311 0
-10272.8 -120366 0
-9720.23 -120417 0
-9167.46 -120466 0
-8614.44 -120512 0
-8061.19 -120555 0
-7507.73 -120595 0
-6954.06 -120633 0
-6400.21 -120667 0
-5846.18 -120700 0
-5291.99 -120729 0
-4737.65 -120755 0
-4183.18 -120779 0
-3628.6 -120800 0
-3073.9 -120818 0
-2519.12 -120833 0
-1964.26 -120846 0
-1409.34 -120856 0
-854.364 -120863 0
-299.356 -120867 0
255.673 -120869 0
810.71 -120867 0
1365.74 -120863 0
1920.75 -120857 0
2475.73 -120847 0
3030.65 -120835 0
3585.52 -120819 0
4140.31 -120801 0
4695.01 -120781 0
5249.6 -120757 0
5804.08 -120731 0
6358.43 -120702 0
6912.63 -120670 0
7466.67 -120635 0
8020.54 -120598 0
8574.22 -120558 0
9127.7 -120515 0
9680.97 -120469 0
10234 -120421 0
10786.8 -120370 0
11339.3 -120316 0
11891.6 -120259 0
12443.6 -120199 0
12995.3 -120137 0
13546.6 -120072 0
14097.7 -120004 0
14648.4 -119934 0
15198.8 -119860 0
15748.7 -119784 0
16298.4 -119705 0
16847.6 -119624 0
17396.4 -119539 0
17944.8 -119452 0
18492.7 -119362 0
19040.2 -119270 0
19587.2 -119175 0
20133.8 -119076 0
20679.8 -118976 0
21225.4 -118872 0
21770.4 -118766 0
22315 -118657 0
22858.9 -118545 0
23402.3 -118431 0
23945.2 -118314 0
24487.4 -118194 0
25029 -118071 0
25570.1 -117946 0
26110.5 -117818 0
26650.2 -117687 0
27189.3 -117554 0
27727.8 -117418 0
28265.5 -117279 0
28802.6 -117137 0
29339 -116993 0
29874.6 -116846 0
30409.5 -116697 0
30943.7 -116544 0
31477 -116389 0
32009.7 -116232 0
32541.5 -116072 0
33072.5 -115909 0
33602.7 -115743 0
34132.1 -115575 0
34660.6 -115404 0
35188.3 -115231 0
35715.1 -115054 0
36241 -114876 0
36766.1 -114694 0
37290.2 -114510 0
37813.4 -114323 0
38335.7 -114134 0
38857 -113942 0
39377.3 -113748 0
39896.7 -113551 0
40415.1 -113351 0
40932.5 -113148 0
41448.9 -112944 0
41964.3 -112736 0
42478.6 -112526 0
42991.9 -112313 0
43504.1 -112098 0
44015.2 -111880 0
44525.2 -111660 0
45034.2 -111437 0
45542 -111212 0
46048.7 -110984 0
46554.2 -110753 0
47058.6 -110520 0
47561.9 -110284 0
48063.9 -110046 0
48564.8 -109806 0
49064.4 -109563 0
49562.9 -109317 0
50060.1 -109069 0
50556 -108818 0
51050.7 -108565 0
51544.2 -108309 0
52036.3 -108051 0
52527.2 -107791 0
53016.8 -107528 0
53505 -107263 0
53991.9 -106995 0
54477.5 -106724 0
54961.7 -106452 0
55444.6 -106177 0
55926.1 -105899 0
56406.2 -105619 0
56884.9 -105337 0
57362.2 -105052 0
57838 -104765 0
58312.4 -104475 0
58785.4 -104183 0
59256.9 -103889 0
59726.9 -103592 0
60195.5 -103293 0
60662.5 -102992 0
61128.1 -102688 0
61592.1 -102382 0
62054.6 -102074 0
62515.5 -101763 0
62974.9 -101450 0
63432.7 -101135 0
63889 -100817 0
64343.6 -100498 0
64796.7 -100175 0
65248.1 -99851 0
65697.9 -99524.3 0
66146.1 -99195.4 0
66592.6 -98864.3 0
67037.5 -98530.9 0
67480.7 -98195.3 0
67922.3 -97857.5 0
68362.1 -97517.5 0
68800.2 -97175.2 0
69236.7 -96830.8 0
69671.4 -96484.2 0
70104.3 -96135.4 0
70535.5 -95784.4 0
70965 -95431.3 0
71392.7 -95076 0
71818.6 -94718.6 0
72242.7 -94359.1 0
72665 -93997.4 0
73085.5 -93633.6 0
73504.2 -93267.7 0
73921.1 -92899.8 0
74336.1 -92529.7 0
74749.3 -92157.6 0
75160.6 -91783.3 0
75570 -91407.1 0
75977.5 -91028.7 0
76383.2 -90648.4 0
76786.9 -90266 0
77188.8 -89881.6 0
77588.7 -89495.2 0
77986.7 -89106.7 0
78382.7 -88716.3 0
78776.8 -88323.9 0
79168.9 -87929.5 0
79559 -87533.2 0
79947.2 -87134.9 0
80333.3 -86734.7 0
80717.5 -86332.5 0
81099.6 -85928.4 0
81479.7 -85522.4 0
81857.8 -85114.5 0
82233.8 -84704.7 0
82607.8 -84293 0
82979.8 -83879.4 0
83349.6 -83464 0
83717.4 -83046.8 0
84083.1 -82627.6 0
84446.7 -82206.7 0
84808.2 -81783.9 0
85167.5 -81359.4 0
85524.8 -80933 0
85879.9 -80504.8 0
86232.9 -80074.9 0
86583.7 -79643.2 0
86932.3 -79209.7 0
87278.8 -78774.5 0
87623.1 -78337.6 0
87965.2 -77898.9 0
88305.1 -77458.6 0
88642.8 -77016.5 0
88978.4 -76572.7 0
89311.6 -76127.3 0
89642.7 -75680.2 0
89971.5 -75231.4 0
90298.1 -74781 0
90622.4 -74328.9 0
90944.4 -73875.2 0
91264.2 -73419.9 0
91581.7 -72963 0
91896.9 -72504.6 0
92209.8 -72044.5 0
92520.4 -71582.9 0
92828.7 -71119.7 0
93134.7 -70655 0
93438.3 -70188.7 0
93739.7 -69720.9 0
94038.6 -69251.7 0
94335.3 -68780.9 0
94629.5 -68308.6 0
94921.5 -67834.9 0
95211 -67359.7 0
95498.1 -66883 0
95782.9 -66404.9 0
96065.3 -65925.4 0
96345.3 -65444.5 0
96622.8 -64962.2 0
96898 -64478.4 0
97170.7 -63993.4 0
97441 -63506.9 0
97708.9 -63019.1 0
97974.3 -62529.9 0
98237.3 -62039.4 0
98497.8 -61547.6 0
98755.9 -61054.5 0
99011.5 -60560.1 0
99264.6 -60064.5 0
99515.2 -59567.5 0
99763.4 -59069.3 0
100009 -58569.9 0
100252 -58069.2 0
100493 -57567.3 0
100731 -57064.2 0
100967 -56559.9 0
101200 -56054.5 0
101430 -55547.8 0
101658 -55040.1 0
101884 -54531.1 0
102107 -54021.1 0
102327 -53509.9 0
102545 -52997.6 0
102760 -52484.3 0
102973 -51969.8 0
103183 -51454.3 0
103390 -50937.8 0
103595 -50420.2 0
103798 -49901.5 0
103998 -49381.9 0
104195 -48861.3 0
104389 -48339.6 0
104581 -47817 0
104770 -47293.5 0
104957 -46769 0
105141 -46243.5 0
105323 -45717.2 0
105502 -45189.9 0
105678 -44661.7 0
105851 -44132.7 0
106022 -43602.8 0
106190 -43072 0
106356 -42540.4 0
106519 -42007.9 0
106679 -41474.7 0
106837 -40940.6 0
106991 -40405.8 0
107144 -39870.1 0
107293 -39333.7 0
107440 -38796.6 0
107584 -38258.7 0
107726 -37720.1 0
107864 -37180.8 0
108001 -36640.8 0
108134 -36100.2 0
108265 -35558.8 0
108393 -35016.8 0
108518 -34474.2 0
108640 -33930.9 0
108760 -33387 0
108877 -32842.6 0
108992 -32297.5 0
109103 -31751.8 0
109212 -31205.6 0
109318 -30658.9 0
109422 -30111.6 0
109522 -29563.8 0
109620 -29015.5 0
109715 -28466.8 0
109808 -27917.5 0
109898 -27367.8 0
109985 -26817.6 0
110069 -26267 0
110150 -25715.9 0
110229 -25164.5 0
110305 -24612.7 0
110378 -24060.5 0
110448 -23507.9 0
110516 -22955 0
110581 -22401.7 0
110643 -21848.1 0
110702 -21294.2 0
110759 -20740 0
110813 -20185.5 0
110864 -19630.7 0
110912 -19075.7 0
110957 -18520.5 0
111000 -17965 0
111040 -17409.3 0
111077 -16853.4 0
111111 -16297.3 0
111143 -15741.1 0
111171 -15184.7 0
111197 -14628.1 0
111221 -14071.4 0
111241 -13514.6 0
111258 -12957.7 0
111273 -12400.8 0
111285 -11843.7 0
111295 -11286.6 0
111301 -10729.4 0
111305 -10172.2 0
111306 -9614.98 0
111304 -9057.76 0
111299 -8500.54 0
111291 -7943.35 0
111281 -7386.2 0
111268 -6829.1 0
111252 -6272.06 0
111233 -5715.11 0
111212 -5158.25 0
111188 -4601.49 0
111161 -4044.86 0
111131 -3488.36 0
111098 -2932.01 0
111063 -2375.82 0
111025 -1819.82 0
110984 -1264 0
110940 -708.385 0
110894 -152.991 0
110844 402.17 0
110792 957.084 0
110737 1511.74 0
110680 2066.12 0
110619 2620.21 0
110556 3173.99 0
110490 3727.47 0
110421 4280.61 0
110350 4833.4 0
110276 5385.84 0
110199 5937.91 0
110119 6489.59 0
110036 7040.88 0
109951 7591.74 0
109863 8142.19 0
109772 8692.19 0
109679 9241.73 0
109582 9790.81 0
109483 10339.4 0
109381 10887.5 0
109277 11435.1 0
109169 11982.2 0
109059 12528.7 0
108947 13074.7 0
108831 13620.1 0
108713 14164.9 0
108592 14709.2 0
108468 15252.8 0
108342 15795.8 0
108213 16338.2 0
108081 16879.9 0
107946 17421 0
107809 17961.4 0
107669 18501.2 0
107526 19040.2 0
107381 19578.5 0
107233 20116 0
107082 20652.9 0
106929 21189 0
106772 21724.3 0
106614 22258.8 0
106452 22792.5 0
106288 23325.5 0
106121 23857.6 0
105952 24388.8 0
105779 24919.3 0
105605 25448.8 0
105427 25977.5 0
105247 26505.3 0
105064 27032.2 0
104879 27558.2 0
104691 28083.2 0
104500 28607.3 0
104307 29130.5 0
104111 29652.7 0
103913 30173.9 0
103711 30694.1 0
103508 31213.3 0
103301 31731.5 0
103092 32248.6 0
102881 32764.7 0
102667 33279.8 0
102450 33793.7 0
102231 34306.6 0
102009 34818.4 0
101785 35329.1 0
101558 35838.7 0
101328 36347.1 0
101096 36854.4 0
100862 37360.5 0
100625 37865.4 0
100385 38369.2 0
100143 38871.7 0
99898.2 39373.1 0
99651 39873.2 0
99401.3 40372.1 0
99149.2 40869.7 0
98894.5 41366.1 0
98637.4 41861.2 0
98377.7 42355 0
98115.6 42847.5 0
97851.1 43338.6 0
97584 43828.5 0
97314.5 44317 0
97042.6 44804.2 0
96768.3 45290 0
96491.5 45774.5 0
96212.2 46257.6 0
95930.6 46739.2 0
95646.6 47219.5 0
95360.1 47698.3 0
95071.2 48175.7 0
94780 48651.6 0
94486.4 49126.1 0
94190.4 49599.2 0
93892 50070.7 0
93591.3 50540.7 0
93288.2 51009.3 0
92982.8 51476.3 0
92675 51941.8 0
92364.9 52405.8 0
92052.5 52868.2 0
91737.8 53329 0
91420.7 53788.3 0
91101.4 54245.9 0
90779.7 54702 0
90455.8 55156.5 0
90129.6 55609.3 0
89801.2 56060.5 0
89470.5 56510.1 0
89137.5 56958 0
88802.3 57404.3 0
88464.9 57848.8 0
88125.2 58291.7 0
87783.3 58732.9 0
87439.2 59172.3 0
87092.9 59610.1 0
86744.4 60046.1 0
86393.8 60480.4 0
86040.9 60912.9 0
85685.9 61343.6 0
85328.7 61772.6 0
84969.4 62199.8 0
84608 62625.1 0
84244.4 63048.7 0
83878.7 63470.5 0
83510.9 63890.4 0