<VTKFile type="ImageData">
<ImageData Origin="0 -10 0" Spacing="0.5 0.5 1" WholeExtent="0 20 0 40 0 0">
<Piece Extent="0 20 0 40 0 0">
<PointData>
<DataArray Name="f" NumberOfComponents="1" format="ascii" type="Float64">
0.06719 0.0679 0.06829 0.06862 0.06889 0.06911 0.06927 0.06938 0.06945 0.06948 0.06946 0.06941 0.06932 0.0692 0.06904 0.06885 0.06864 0.06838 0.06807 0.06791 0.06719 
0.04772 0.04833 0.04864 0.04894 0.04915 0.04936 0.04948 0.0496 0.04965 0.0497 0.04967 0.04965 0.04956 0.04948 0.04932 0.04919 0.04895 0.0488 0.04843 0.04836 0.04772 
0.03214 0.03264 0.03284 0.03312 0.03323 0.03343 0.03347 0.03362 0.0336 0.0337 0.03362 0.03367 0.03354 0.03355 0.03336 0.03333 0.03307 0.03303 0.03267 0.03266 0.03214 
0.0205 0.0209 0.02102 0.02126 0.02129 0.02149 0.02145 0.02161 0.02151 0.02165 0.02151 0.02162 0.02144 0.02153 0.02132 0.02138 0.02112 0.02116 0.02086 0.02087 0.0205 
0.01235 0.01265 0.01275 0.01292 0.01295 0.01308 0.01305 0.01316 0.01307 0.01317 0.01304 0.01313 0.01297 0.01305 0.01287 0.01294 0.01274 0.01279 0.01257 0.01259 0.01235 
0.00701 0.007201 0.007308 0.007401 0.007464 0.007521 0.007545 0.007573 0.007563 0.007569 0.007531 0.007526 0.007465 0.007457 0.007377 0.007369 0.007272 0.007266 0.007151 0.007144 0.00701 
0.003735 0.00385 0.003924 0.003987 0.004039 0.00408 0.004108 0.004127 0.004133 0.004133 0.004118 0.004104 0.004072 0.004049 0.004004 0.003979 0.003922 0.0039 0.003832 0.003817 0.003735 
0.001875 0.001932 0.001973 0.00201 0.002043 0.00207 0.002093 0.00211 0.002121 0.002127 0.002126 0.002119 0.002106 0.00209 0.002066 0.002044 0.002011 0.001989 0.001946 0.001929 0.001875 
0.0008963 0.0009175 0.000935 0.000951 0.0009658 0.0009795 0.0009922 0.001003 0.001013 0.00102 0.001024 0.001026 0.001024 0.001019 0.001009 0.0009983 0.0009817 0.0009674 0.0009433 0.0009305 0.0008963 
0.0004116 0.0004189 0.0004247 0.000429 0.0004325 0.0004358 0.0004393 0.0004431 0.0004471 0.0004512 0.0004549 0.0004581 0.0004601 0.0004609 0.0004599 0.0004573 0.0004522 0.0004463 0.0004362 0.0004292 0.0004116 
0.0001806 0.0001855 0.000188 0.0001888 0.0001883 0.0001872 0.0001859 0.0001849 0.0001845 0.0001847 0.0001855 0.0001868 0.0001884 0.00019 0.0001912 0.000192 0.000192 0.0001913 0.000189 0.0001868 0.0001806 
7.394e-05 7.861e-05 8.094e-05 8.188e-05 8.158e-05 8.03e-05 7.838e-05 7.62e-05 7.409e-05 7.232e-05 7.107e-05 7.043e-05 7.036e-05 7.077e-05 7.152e-05 7.244e-05 7.337e-05 7.416e-05 7.459e-05 7.471e-05 7.394e-05 
2.841e-05 3.173e-05 3.362e-05 3.484e-05 3.532e-05 3.507e-05 3.416e-05 3.274e-05 3.101e-05 2.919e-05 2.751e-05 2.613e-05 2.516e-05 2.466e-05 2.46e-05 2.49e-05 2.549e-05 2.622e-05 2.702e-05 2.768e-05 2.841e-05 
1.354e-05 1.541e-05 1.62e-05 1.678e-05 1.71e-05 1.711e-05 1.677e-05 1.609e-05 1.51e-05 1.388e-05 1.256e-05 1.128e-05 1.019e-05 9.41e-06 9.029e-06 9.078e-06 9.534e-06 1.031e-05 1.131e-05 1.228e-05 1.354e-05 
1.467e-05 1.712e-05 1.701e-05 1.661e-05 1.601e-05 1.527e-05 1.44e-05 1.34e-05 1.229e-05 1.106e-05 9.757e-06 8.445e-06 7.224e-06 6.232e-06 5.629e-06 5.583e-06 6.223e-06 7.575e-06 9.563e-06 1.177e-05 1.467e-05 
2.63e-05 3.378e-05 3.4e-05 3.323e-05 3.175e-05 2.981e-05 2.757e-05 2.515e-05 2.264e-05 2.009e-05 1.757e-05 1.511e-05 1.279e-05 1.073e-05 9.105e-06 8.227e-06 8.509e-06 1.038e-05 1.409e-05 1.912e-05 2.63e-05 
4.886e-05 6.959e-05 7.297e-05 7.369e-05 7.245e-05 6.972e-05 6.591e-05 6.132e-05 5.622e-05 5.082e-05 4.529e-05 3.976e-05 3.438e-05 2.927e-05 2.463e-05 2.084e-05 1.859e-05 1.906e-05 2.379e-05 3.321e-05 4.886e-05 
8.88e-05 0.0001361 0.0001484 0.0001548 0.0001567 0.0001551 0.0001507 0.000144 0.0001356 0.0001259 0.0001153 0.0001041 9.272e-05 8.131e-05 7.02e-05 5.975e-05 5.073e-05 4.486e-05 4.584e-05 5.864e-05 8.88e-05 
0.0001648 0.0002563 0.0002875 0.0003074 0.0003187 0.0003227 0.0003208 0.0003138 0.0003025 0.0002878 0.0002703 0.0002507 0.0002296 0.0002074 0.0001846 0.0001618 0.0001397 0.0001196 0.0001062 0.0001126 0.0001648 
0.0003236 0.0004762 0.0005417 0.0005871 0.0006175 0.0006354 0.0006423 0.0006396 0.0006284 0.0006099 0.000585 0.0005548 0.0005202 0.000482 0.000441 0.0003981 0.0003541 0.00031 0.0002684 0.0002438 0.0003236 
0.0006671 0.000887 0.001006 0.001093 0.001156 0.001199 0.001225 0.001235 0.00123 0.001211 0.001181 0.00114 0.001089 0.00103 0.0009642 0.000892 0.000815 0.0007346 0.000652 0.0005688 0.0006671 
0.00138 0.001663 0.001851 0.001996 0.002108 0.002191 0.002248 0.002281 0.002291 0.00228 0.002249 0.002199 0.002132 0.00205 0.001952 0.001842 0.00172 0.001588 0.001448 0.001302 0.00138 
0.002742 0.003103 0.003367 0.003582 0.003757 0.003893 0.003995 0.004063 0.004098 0.004103 0.004078 0.004024 0.003942 0.003835 0.003702 0.003546 0.003368 0.003169 0.002952 0.002718 0.002742 
0.005175 0.005629 0.005972 0.006267 0.006514 0.006716 0.006873 0.006987 0.007058 0.007086 0.007074 0.007021 0.006929 0.006797 0.006628 0.006421 0.006178 0.0059 0.005588 0.005243 0.005175 
0.009233 0.009796 0.01022 0.0106 0.01093 0.0112 0.01142 0.01159 0.0117 0.01176 0.01177 0.01172 0.01162 0.01147 0.01126 0.011 0.01069 0.01033 0.009905 0.009433 0.009233 
0.01558 0.01627 0.01677 0.01724 0.01765 0.018 0.01828 0.0185 0.01866 0.01875 0.01878 0.01875 0.01864 0.01847 0.01823 0.01792 0.01754 0.01708 0.01655 0.01594 0.01558 
0.0249 0.02572 0.0263 0.02686 0.02734 0.02775 0.0281 0.02837 0.02857 0.0287 0.02875 0.02872 0.02861 0.02843 0.02816 0.0278 0.02736 0.02682 0.02618 0.02544 0.0249 
0.03775 0.03871 0.03934 0.03998 0.04052 0.041 0.04139 0.04171 0.04194 0.04209 0.04216 0.04214 0.04203 0.04183 0.04154 0.04115 0.04066 0.04005 0.03933 0.03848 0.03775 
0.05439 0.05547 0.05613 0.05683 0.0574 0.05792 0.05834 0.05868 0.05893 0.0591 0.05917 0.05916 0.05905 0.05885 0.05855 0.05814 0.05762 0.05697 0.0562 0.05528 0.05439 
0.07455 0.07571 0.07634 0.07708 0.07765 0.07818 0.0786 0.07894 0.07919 0.07936 0.07944 0.07943 0.07932 0.07913 0.07883 0.07843 0.07791 0.07726 0.07648 0.07555 0.07455 
0.09726 0.09844 0.099 0.09973 0.1002 0.1007 0.1011 0.1015 0.1017 0.1018 0.1019 0.1019 0.1018 0.1016 0.1014 0.101 0.1005 0.09992 0.09919 0.0983 0.09726 
0.1208 0.1219 0.1224 0.1231 0.1235 0.1239 0.1242 0.1245 0.1247 0.1248 0.1249 0.1249 0.1248 0.1247 0.1244 0.1241 0.1237 0.1232 0.1226 0.1218 0.1208 
0.143 0.1439 0.1442 0.1447 0.145 0.1454 0.1456 0.1458 0.1459 0.146 0.146 0.1461 0.146 0.146 0.1458 0.1456 0.1453 0.1449 0.1445 0.1439 0.143 
0.1612 0.1618 0.1619 0.1622 0.1624 0.1626 0.1627 0.1628 0.1629 0.163 0.163 0.1631 0.1631 0.1631 0.163 0.1629 0.1627 0.1625 0.1622 0.1618 0.1612 
0.1729 0.1731 0.1731 0.1732 0.1732 0.1733 0.1734 0.1734 0.1735 0.1736 0.1736 0.1737 0.1737 0.1738 0.1738 0.1738 0.1737 0.1737 0.1735 0.1733 0.1729 
0.1766 0.1764 0.1763 0.1762 0.1762 0.1761 0.1762 0.1762 0.1763 0.1763 0.1764 0.1765 0.1765 0.1766 0.1766 0.1766 0.1766 0.1766 0.1766 0.1766 0.1766 
0.1716 0.1711 0.1711 0.1708 0.1709 0.1707 0.1708 0.1707 0.1708 0.1707 0.1707 0.1707 0.1707 0.1707 0.1707 0.1708 0.1708 0.1709 0.171 0.1712 0.1716 
0.1588 0.1583 0.1584 0.1579 0.158 0.1577 0.1577 0.1575 0.1574 0.1572 0.1571 0.1569 0.1569 0.1568 0.1569 0.1569 0.1571 0.1573 0.1577 0.1581 0.1588 
0.1403 0.1396 0.1396 0.139 0.1389 0.1384 0.1381 0.1377 0.1374 0.1372 0.137 0.1369 0.1369 0.137 0.1372 0.1375 0.1378 0.1382 0.1387 0.1393 0.1403 
0.1179 0.1166 0.1164 0.1156 0.1151 0.1147 0.1143 0.114 0.1139 0.1139 0.1139 0.114 0.1142 0.1145 0.1148 0.1152 0.1156 0.1161 0.1165 0.1171 0.1179 
0.09279 0.09127 0.09092 0.09066 0.09042 0.0904 0.09043 0.09053 0.09067 0.09084 0.09102 0.09122 0.09141 0.0916 0.09178 0.09196 0.09213 0.09228 0.09244 0.09259 0.09279 
</DataArray>
<DataArray Name="E" NumberOfComponents="1" format="ascii" type="Float64">
1.703 1.69 1.664 1.64 1.618 1.596 1.576 1.556 1.537 1.519 1.5 1.482 1.463 1.444 1.424 1.404 1.382 1.36 1.335 1.309 1.296 
1.703 1.69 1.664 1.64 1.618 1.596 1.576 1.556 1.537 1.519 1.5 1.482 1.463 1.444 1.424 1.404 1.382 1.36 1.335 1.309 1.296 
1.703 1.69 1.664 1.64 1.618 1.596 1.576 1.556 1.537 1.519 1.5 1.482 1.463 1.444 1.424 1.404 1.382 1.36 1.335 1.309 1.296 
1.703 1.69 1.664 1.64 1.618 1.596 1.576 1.556 1.537 1.519 1.5 1.482 1.463 1.444 1.424 1.404 1.382 1.36 1.335 1.309 1.296 
1.703 1.69 1.664 1.64 1.618 1.596 1.576 1.556 1.537 1.519 1.5 1.482 1.463 1.444 1.424 1.404 1.382 1.36 1.335 1.309 1.296 
1.703 1.69 1.664 1.64 1.618 1.596 1.576 1.556 1.537 1.519 1.5 1.482 1.463 1.444 1.424 1.404 1.382 1.36 1.335 1.309 1.296 
1.703 1.69 1.664 1.64 1.618 1.596 1.576 1.556 1.537 1.519 1.5 1.482 1.463 1.444 1.424 1.404 1.382 1.36 1.335 1.309 1.296 
1.703 1.69 1.664 1.64 1.618 1.596 1.576 1.556 1.537 1.519 1.5 1.482 1.463 1.444 1.424 1.404 1.382 1.36 1.335 1.309 1.296 
1.703 1.69 1.664 1.64 1.618 1.596 1.576 1.556 1.537 1.519 1.5 1.482 1.463 1.444 1.424 1.404 1.382 1.36 1.335 1.309 1.296 
1.703 1.69 1.664 1.64 1.618 1.596 1.576 1.556 1.537 1.519 1.5 1.482 1.463 1.444 1.424 1.404 1.382 1.36 1.335 1.309 1.296 
1.703 1.69 1.664 1.64 1.618 1.596 1.576 1.556 1.537 1.519 1.5 1.482 1.463 1.444 1.424 1.404 1.382 1.36 1.335 1.309 1.296 
1.703 1.69 1.664 1.64 1.618 1.596 1.576 1.556 1.537 1.519 1.5 1.482 1.463 1.444 1.424 1.404 1.382 1.36 1.335 1.309 1.296 
1.703 1.69 1.664 1.64 1.618 1.596 1.576 1.556 1.537 1.519 1.5 1.482 1.463 1.444 1.424 1.404 1.382 1.36 1.335 1.309 1.296 
1.703 1.69 1.664 1.64 1.618 1.596 1.576 1.556 1.537 1.519 1.5 1.482 1.463 1.444 1.424 1.404 1.382 1.36 1.335 1.309 1.296 
1.703 1.69 1.664 1.64 1.618 1.596 1.576 1.556 1.537 1.519 1.5 1.482 1.463 1.444 1.424 1.404 1.382 1.36 1.335 1.309 1.296 
1.703 1.69 1.664 1.64 1.618 1.596 1.576 1.556 1.537 1.519 1.5 1.482 1.463 1.444 1.424 1.404 1.382 1.36 1.335 1.309 1.296 
1.703 1.69 1.664 1.64 1.618 1.596 1.576 1.556 1.537 1.519 1.5 1.482 1.463 1.444 1.424 1.404 1.382 1.36 1.335 1.309 1.296 
1.703 1.69 1.664 1.64 1.618 1.596 1.576 1.556 1.537 1.519 1.5 1.482 1.463 1.444 1.424 1.404 1.382 1.36 1.335 1.309 1.296 
1.703 1.69 1.664 1.64 1.618 1.596 1.576 1.556 1.537 1.519 1.5 1.482 1.463 1.444 1.424 1.404 1.382 1.36 1.335 1.309 1.296 
1.703 1.69 1.664 1.64 1.618 1.596 1.576 1.556 1.537 1.519 1.5 1.482 1.463 1.444 1.424 1.404 1.382 1.36 1.335 1.309 1.296 
1.703 1.69 1.664 1.64 1.618 1.596 1.576 1.556 1.537 1.519 1.5 1.482 1.463 1.444 1.424 1.404 1.382 1.36 1.335 1.309 1.296 
1.703 1.69 1.664 1.64 1.618 1.596 1.576 1.556 1.537 1.519 1.5 1.482 1.463 1.444 1.424 1.404 1.382 1.36 1.335 1.309 1.296 
1.703 1.69 1.664 1.64 1.618 1.596 1.576 1.556 1.537 1.519 1.5 1.482 1.463 1.444 1.424 1.404 1.382 1.36 1.335 1.309 1.296 
1.703 1.69 1.664 1.64 1.618 1.596 1.576 1.556 1.537 1.519 1.5 1.482 1.463 1.444 1.424 1.404 1.382 1.36 1.335 1.309 1.296 
1.703 1.69 1.664 1.64 1.618 1.596 1.576 1.556 1.537 1.519 1.5 1.482 1.463 1.444 1.424 1.404 1.382 1.36 1.335 1.309 1.296 
1.703 1.69 1.664 1.64 1.618 1.596 1.576 1.556 1.537 1.519 1.5 1.482 1.463 1.444 1.424 1.404 1.382 1.36 1.335 1.309 1.296 
1.703 1.69 1.664 1.64 1.618 1.596 1.576 1.556 1.537 1.519 1.5 1.482 1.463 1.444 1.424 1.404 1.382 1.36 1.335 1.309 1.296 
1.703 1.69 1.664 1.64 1.618 1.596 1.576 1.556 1.537 1.519 1.5 1.482 1.463 1.444 1.424 1.404 1.382 1.36 1.335 1.309 1.296 
1.703 1.69 1.664 1.64 1.618 1.596 1.576 1.556 1.537 1.519 1.5 1.482 1.463 1.444 1.424 1.404 1.382 1.36 1.335 1.309 1.296 
1.703 1.69 1.664 1.64 1.618 1.596 1.576 1.556 1.537 1.519 1.5 1.482 1.463 1.444 1.424 1.404 1.382 1.36 1.335 1.309 1.296 
1.703 1.69 1.664 1.64 1.618 1.596 1.576 1.556 1.537 1.519 1.5 1.482 1.463 1.444 1.424 1.404 1.382 1.36 1.335 1.309 1.296 
1.703 1.69 1.664 1.64 1.618 1.596 1.576 1.556 1.537 1.519 1.5 1.482 1.463 1.444 1.424 1.404 1.382 1.36 1.335 1.309 1.296 
1.703 1.69 1.664 1.64 1.618 1.596 1.576 1.556 1.537 1.519 1.5 1.482 1.463 1.444 1.424 1.404 1.382 1.36 1.335 1.309 1.296 
1.703 1.69 1.664 1.64 1.618 1.596 1.576 1.556 1.537 1.519 1.5 1.482 1.463 1.444 1.424 1.404 1.382 1.36 1.335 1.309 1.296 
1.703 1.69 1.664 1.64 1.618 1.596 1.576 1.556 1.537 1.519 1.5 1.482 1.463 1.444 1.424 1.404 1.382 1.36 1.335 1.309 1.296 
1.703 1.69 1.664 1.64 1.618 1.596 1.576 1.556 1.537 1.519 1.5 1.482 1.463 1.444 1.424 1.404 1.382 1.36 1.335 1.309 1.296 
1.703 1.69 1.664 1.64 1.618 1.596 1.576 1.556 1.537 1.519 1.5 1.482 1.463 1.444 1.424 1.404 1.382 1.36 1.335 1.309 1.296 
1.703 1.69 1.664 1.64 1.618 1.596 1.576 1.556 1.537 1.519 1.5 1.482 1.463 1.444 1.424 1.404 1.382 1.36 1.335 1.309 1.296 
1.703 1.69 1.664 1.64 1.618 1.596 1.576 1.556 1.537 1.519 1.5 1.482 1.463 1.444 1.424 1.404 1.382 1.36 1.335 1.309 1.296 
1.703 1.69 1.664 1.64 1.618 1.596 1.576 1.556 1.537 1.519 1.5 1.482 1.463 1.444 1.424 1.404 1.382 1.36 1.335 1.309 1.296 
1.703 1.69 1.664 1.64 1.618 1.596 1.576 1.556 1.537 1.519 1.5 1.482 1.463 1.444 1.424 1.404 1.382 1.36 1.335 1.309 1.296 
</DataArray>
<DataArray Name="ne" NumberOfComponents="1" format="ascii" type="Float64">
0.9431 0.9468 0.9505 0.9536 0.9563 0.9584 0.9602 0.9614 0.9626 0.9629 0.9633 0.9628 0.9626 0.9612 0.9602 0.958 0.9561 0.9529 0.95 0.9455 0.9428 
0.9431 0.9468 0.9505 0.9536 0.9563 0.9584 0.9602 0.9614 0.9626 0.9629 0.9633 0.9628 0.9626 0.9612 0.9602 0.958 0.9561 0.9529 0.95 0.9455 0.9428 
0.9431 0.9468 0.9505 0.9536 0.9563 0.9584 0.9602 0.9614 0.9626 0.9629 0.9633 0.9628 0.9626 0.9612 0.9602 0.958 0.9561 0.9529 0.95 0.9455 0.9428 
0.9431 0.9468 0.9505 0.9536 0.9563 0.9584 0.9602 0.9614 0.9626 0.9629 0.9633 0.9628 0.9626 0.9612 0.9602 0.958 0.9561 0.9529 0.95 0.9455 0.9428 
0.9431 0.9468 0.9505 0.9536 0.9563 0.9584 0.9602 0.9614 0.9626 0.9629 0.9633 0.9628 0.9626 0.9612 0.9602 0.958 0.9561 0.9529 0.95 0.9455 0.9428 
0.9431 0.9468 0.9505 0.9536 0.9563 0.9584 0.9602 0.9614 0.9626 0.9629 0.9633 0.9628 0.9626 0.9612 0.9602 0.958 0.9561 0.9529 0.95 0.9455 0.9428 
0.9431 0.9468 0.9505 0.9536 0.9563 0.9584 0.9602 0.9614 0.9626 0.9629 0.9633 0.9628 0.9626 0.9612 0.9602 0.958 0.9561 0.9529 0.95 0.9455 0.9428 
0.9431 0.9468 0.9505 0.9536 0.9563 0.9584 0.9602 0.9614 0.9626 0.9629 0.9633 0.9628 0.9626 0.9612 0.9602 0.958 0.9561 0.9529 0.95 0.9455 0.9428 
0.9431 0.9468 0.9505 0.9536 0.9563 0.9584 0.9602 0.9614 0.9626 0.9629 0.9633 0.9628 0.9626 0.9612 0.9602 0.958 0.9561 0.9529 0.95 0.9455 0.9428 
0.9431 0.9468 0.9505 0.9536 0.9563 0.9584 0.9602 0.9614 0.9626 0.9629 0.9633 0.9628 0.9626 0.9612 0.9602 0.958 0.9561 0.9529 0.95 0.9455 0.9428 
0.9431 0.9468 0.9505 0.9536 0.9563 0.9584 0.9602 0.9614 0.9626 0.9629 0.9633 0.9628 0.9626 0.9612 0.9602 0.958 0.9561 0.9529 0.95 0.9455 0.9428 
0.9431 0.9468 0.9505 0.9536 0.9563 0.9584 0.9602 0.9614 0.9626 0.9629 0.9633 0.9628 0.9626 0.9612 0.9602 0.958 0.9561 0.9529 0.95 0.9455 0.9428 
0.9431 0.9468 0.9505 0.9536 0.9563 0.9584 0.9602 0.9614 0.9626 0.9629 0.9633 0.9628 0.9626 0.9612 0.9602 0.958 0.9561 0.9529 0.95 0.9455 0.9428 
0.9431 0.9468 0.9505 0.9536 0.9563 0.9584 0.9602 0.9614 0.9626 0.9629 0.9633 0.9628 0.9626 0.9612 0.9602 0.958 0.9561 0.9529 0.95 0.9455 0.9428 
0.9431 0.9468 0.9505 0.9536 0.9563 0.9584 0.9602 0.9614 0.9626 0.9629 0.9633 0.9628 0.9626 0.9612 0.9602 0.958 0.9561 0.9529 0.95 0.9455 0.9428 
0.9431 0.9468 0.9505 0.9536 0.9563 0.9584 0.9602 0.9614 0.9626 0.9629 0.9633 0.9628 0.9626 0.9612 0.9602 0.958 0.9561 0.9529 0.95 0.9455 0.9428 
0.9431 0.9468 0.9505 0.9536 0.9563 0.9584 0.9602 0.9614 0.9626 0.9629 0.9633 0.9628 0.9626 0.9612 0.9602 0.958 0.9561 0.9529 0.95 0.9455 0.9428 
0.9431 0.9468 0.9505 0.9536 0.9563 0.9584 0.9602 0.9614 0.9626 0.9629 0.9633 0.9628 0.9626 0.9612 0.9602 0.958 0.9561 0.9529 0.95 0.9455 0.9428 
0.9431 0.9468 0.9505 0.9536 0.9563 0.9584 0.9602 0.9614 0.9626 0.9629 0.9633 0.9628 0.9626 0.9612 0.9602 0.958 0.9561 0.9529 0.95 0.9455 0.9428 
0.9431 0.9468 0.9505 0.9536 0.9563 0.9584 0.9602 0.9614 0.9626 0.9629 0.9633 0.9628 0.9626 0.9612 0.9602 0.958 0.9561 0.9529 0.95 0.9455 0.9428 
0.9431 0.9468 0.9505 0.9536 0.9563 0.9584 0.9602 0.9614 0.9626 0.9629 0.9633 0.9628 0.9626 0.9612 0.9602 0.958 0.9561 0.9529 0.95 0.9455 0.9428 
0.9431 0.9468 0.9505 0.9536 0.9563 0.9584 0.9602 0.9614 0.9626 0.9629 0.9633 0.9628 0.9626 0.9612 0.9602 0.958 0.9561 0.9529 0.95 0.9455 0.9428 
0.9431 0.9468 0.9505 0.9536 0.9563 0.9584 0.9602 0.9614 0.9626 0.9629 0.9633 0.9628 0.9626 0.9612 0.9602 0.958 0.9561 0.9529 0.95 0.9455 0.9428 
0.9431 0.9468 0.9505 0.9536 0.9563 0.9584 0.9602 0.9614 0.9626 0.9629 0.9633 0.9628 0.9626 0.9612 0.9602 0.958 0.9561 0.9529 0.95 0.9455 0.9428 
0.9431 0.9468 0.9505 0.9536 0.9563 0.9584 0.9602 0.9614 0.9626 0.9629 0.9633 0.9628 0.9626 0.9612 0.9602 0.958 0.9561 0.9529 0.95 0.9455 0.9428 
0.9431 0.9468 0.9505 0.9536 0.9563 0.9584 0.9602 0.9614 0.9626 0.9629 0.9633 0.9628 0.9626 0.9612 0.9602 0.958 0.9561 0.9529 0.95 0.9455 0.9428 
0.9431 0.9468 0.9505 0.9536 0.9563 0.9584 0.9602 0.9614 0.9626 0.9629 0.9633 0.9628 0.9626 0.9612 0.9602 0.958 0.9561 0.9529 0.95 0.9455 0.9428 
0.9431 0.9468 0.9505 0.9536 0.9563 0.9584 0.9602 0.9614 0.9626 0.9629 0.9633 0.9628 0.9626 0.9612 0.9602 0.958 0.9561 0.9529 0.95 0.9455 0.9428 
0.9431 0.9468 0.9505 0.9536 0.9563 0.9584 0.9602 0.9614 0.9626 0.9629 0.9633 0.9628 0.9626 0.9612 0.9602 0.958 0.9561 0.9529 0.95 0.9455 0.9428 
0.9431 0.9468 0.9505 0.9536 0.9563 0.9584 0.9602 0.9614 0.9626 0.9629 0.9633 0.9628 0.9626 0.9612 0.9602 0.958 0.9561 0.9529 0.95 0.9455 0.9428 
0.9431 0.9468 0.9505 0.9536 0.9563 0.9584 0.9602 0.9614 0.9626 0.9629 0.9633 0.9628 0.9626 0.9612 0.9602 0.958 0.9561 0.9529 0.95 0.9455 0.9428 
0.9431 0.9468 0.9505 0.9536 0.9563 0.9584 0.9602 0.9614 0.9626 0.9629 0.9633 0.9628 0.9626 0.9612 0.9602 0.958 0.9561 0.9529 0.95 0.9455 0.9428 
0.9431 0.9468 0.9505 0.9536 0.9563 0.9584 0.9602 0.9614 0.9626 0.9629 0.9633 0.9628 0.9626 0.9612 0.9602 0.958 0.9561 0.9529 0.95 0.9455 0.9428 
0.9431 0.9468 0.9505 0.9536 0.9563 0.9584 0.9602 0.9614 0.9626 0.9629 0.9633 0.9628 0.9626 0.9612 0.9602 0.958 0.9561 0.9529 0.95 0.9455 0.9428 
0.9431 0.9468 0.9505 0.9536 0.9563 0.9584 0.9602 0.9614 0.9626 0.9629 0.9633 0.9628 0.9626 0.9612 0.9602 0.958 0.9561 0.9529 0.95 0.9455 0.9428 
0.9431 0.9468 0.9505 0.9536 0.9563 0.9584 0.9602 0.9614 0.9626 0.9629 0.9633 0.9628 0.9626 0.9612 0.9602 0.958 0.9561 0.9529 0.95 0.9455 0.9428 
0.9431 0.9468 0.9505 0.9536 0.9563 0.9584 0.9602 0.9614 0.9626 0.9629 0.9633 0.9628 0.9626 0.9612 0.9602 0.958 0.9561 0.9529 0.95 0.9455 0.9428 
0.9431 0.9468 0.9505 0.9536 0.9563 0.9584 0.9602 0.9614 0.9626 0.9629 0.9633 0.9628 0.9626 0.9612 0.9602 0.958 0.9561 0.9529 0.95 0.9455 0.9428 
0.9431 0.9468 0.9505 0.9536 0.9563 0.9584 0.9602 0.9614 0.9626 0.9629 0.9633 0.9628 0.9626 0.9612 0.9602 0.958 0.9561 0.9529 0.95 0.9455 0.9428 
0.9431 0.9468 0.9505 0.9536 0.9563 0.9584 0.9602 0.9614 0.9626 0.9629 0.9633 0.9628 0.9626 0.9612 0.9602 0.958 0.9561 0.9529 0.95 0.9455 0.9428 
0.9431 0.9468 0.9505 0.9536 0.9563 0.9584 0.9602 0.9614 0.9626 0.9629 0.9633 0.9628 0.9626 0.9612 0.9602 0.958 0.9561 0.9529 0.95 0.9455 0.9428 
</DataArray>
</PointData>
</Piece>
</ImageData>
</VTKFile>
