<VTKFile type="ImageData">
<ImageData Origin="0 -10 0" Spacing="0.5 0.5 1" WholeExtent="0 20 0 40 0 0">
<Piece Extent="0 20 0 40 0 0">
<PointData>
<DataArray Name="f" NumberOfComponents="1" format="ascii" type="Float64">
2.695e-08 5.519e-10 1.162e-13 4.568e-16 0 0 0 0 0 0 0 0 0 0 0 0 0 0 0 0 0 
3.069e-06 9.636e-08 2.02e-10 2.496e-12 1.729e-17 1.01e-20 0 0 0 0 0 0 0 0 0 0 0 0 0 0 0 
6.15e-05 3.62e-06 6.128e-08 1.682e-09 4.508e-13 3.654e-15 1.175e-17 0 0 0 0 0 0 0 0 0 0 0 0 0 0 
0.0007023 9.239e-05 6.606e-06 2.731e-07 7.644e-10 2.006e-11 3.26e-13 2.83e-15 9.641e-18 0 0 0 0 0 0 0 0 0 0 0 0 
0.003532 0.0008138 0.0001121 8.774e-06 2.189e-07 1.289e-08 5.446e-10 1.569e-11 2.836e-13 2.779e-15 1.079e-17 0 0 0 0 0 0 0 0 0 0 
0.009966 0.003906 0.000992 0.0001594 1.471e-05 1.186e-06 9.071e-08 5.032e-09 1.929e-10 4.727e-12 6.453e-14 3.657e-16 3.405e-19 0 0 0 0 0 0 0 0 
0.01663 0.01019 0.004194 0.001143 0.0001994 2.701e-05 3.108e-06 2.601e-07 1.51e-08 5.633e-10 1.175e-11 1.025e-13 1.568e-16 0 0 0 0 0 0 0 0 
0.01777 0.0164 0.0104 0.004476 0.001288 0.0002737 4.543e-05 5.477e-06 4.587e-07 2.479e-08 7.567e-10 9.899e-12 2.493e-14 2.694e-20 0 0 0 0 0 0 0 
0.01253 0.01715 0.01632 0.01068 0.004765 0.00152 0.0003595 6.148e-05 7.31e-06 5.638e-07 2.489e-08 4.858e-10 2.024e-12 7.929e-18 0 0 0 0 0 0 0 
0.005853 0.01183 0.0167 0.01631 0.01094 0.005135 0.001728 0.0004181 7.03e-05 7.712e-06 4.915e-07 1.434e-08 9.94e-11 1.418e-15 0 0 0 0 0 0 0 
0.00178 0.005346 0.01121 0.01626 0.01623 0.01114 0.005373 0.001846 0.0004403 6.891e-05 6.364e-06 2.79e-07 3.237e-09 1.673e-13 3.054e-20 0 0 0 0 0 0 
0.0003402 0.001547 0.004882 0.01059 0.01579 0.01597 0.01117 0.0055 0.001875 0.0004216 5.686e-05 3.779e-06 7.392e-08 1.368e-11 5.088e-17 7.569e-20 0 0 0 0 0 
3.853e-05 0.0002745 0.001337 0.004435 0.01004 0.01524 0.01573 0.01124 0.00554 0.00181 0.0003607 3.678e-05 1.224e-06 7.977e-10 3.526e-14 1.136e-16 2.359e-19 0 0 0 0 
2.362e-06 2.787e-05 0.0002188 0.001151 0.004079 0.009581 0.01494 0.01577 0.01141 0.005498 0.001643 0.0002612 1.499e-05 3.375e-08 1.183e-11 7.373e-14 2.657e-16 4.069e-19 0 0 0 
6.787e-08 1.454e-06 1.969e-05 0.0001748 0.001015 0.003866 0.009375 0.01494 0.01616 0.01171 0.005354 0.001355 0.0001367 1.041e-06 2.094e-09 2.316e-11 1.373e-13 3.378e-16 2.331e-19 0 0 
7.193e-10 3.274e-08 8.527e-07 1.412e-05 0.0001441 0.0009543 0.003734 0.009206 0.01524 0.01699 0.01219 0.005048 0.0009213 2.316e-05 2.028e-07 3.758e-09 3.557e-11 1.377e-13 1.501e-16 2.155e-20 0 
1.938e-12 2.275e-10 1.415e-08 5.185e-07 1.037e-05 0.0001336 0.0008802 0.003458 0.009009 0.0159 0.01848 0.01298 0.004457 0.0003578 1.07e-05 3.241e-07 4.861e-09 2.956e-11 5.086e-14 1.169e-17 0 
5.895e-16 1.519e-13 6.34e-11 6.342e-09 3.102e-07 9.342e-06 0.0001086 0.0007033 0.002983 0.008649 0.01697 0.02118 0.01442 0.003513 0.0002936 1.478e-05 3.584e-07 3.486e-09 9.619e-12 3.594e-15 0 
0 0 3.582e-14 8.098e-12 2.914e-09 2.519e-07 5.371e-06 6.011e-05 0.0004374 0.002205 0.007761 0.01839 0.02652 0.01829 0.00381 0.0003429 1.419e-05 2.304e-07 1.057e-09 6.646e-13 0 
0 0 0 0 4.794e-12 9.521e-10 4.154e-08 9.329e-07 1.363e-05 0.0001396 0.001023 0.00528 0.01803 0.03458 0.02002 0.0038 0.0002953 8.553e-06 6.893e-08 7.73e-11 0 
0 0 0 0 0 0 3.643e-16 1.428e-12 4.397e-10 3.653e-08 1.335e-06 2.766e-05 0.0003817 0.003947 0.03227 0.01879 0.003185 0.0001789 2.689e-06 5.845e-09 1.691e-11 
0 0 0 0 0 0 2.652e-18 1.545e-14 6.651e-12 7.514e-10 3.661e-08 9.918e-07 1.741e-05 0.0002204 0.01344 0.02478 0.01367 0.003749 0.0006255 6.727e-05 5.469e-06 
0 0 0 0 0 0 1.283e-20 1.08e-16 6.361e-14 9.613e-12 6.176e-10 2.178e-08 4.904e-07 7.795e-06 0.002888 0.01476 0.01897 0.01158 0.004123 0.0009197 0.0001482 
0 0 0 0 0 0 0 4.581e-19 3.619e-16 7.198e-14 6.021e-12 2.742e-10 7.901e-09 1.59e-07 0.0003879 0.00513 0.01354 0.01584 0.01043 0.004232 0.001198 
0 0 0 0 0 0 0 0 1.137e-18 2.933e-16 3.155e-14 1.837e-12 6.732e-11 1.712e-09 3.545e-05 0.001167 0.005919 0.01234 0.01401 0.009683 0.004547 
0 0 0 0 0 0 0 0 0 5.962e-19 8.164e-17 6.024e-15 2.788e-13 8.925e-12 2.309e-06 0.0001836 0.001718 0.006099 0.01141 0.01286 0.009612 
0 0 0 0 0 0 0 0 0 0 9.422e-20 8.756e-18 5.091e-16 2.042e-14 1.101e-07 2.047e-05 0.0003445 0.002021 0.006035 0.01073 0.01236 
0 0 0 0 0 0 0 0 0 0 0 0 3.634e-19 1.824e-17 3.896e-09 1.631e-06 4.857e-05 0.0004604 0.002144 0.005861 0.01014 
0 0 0 0 0 0 0 0 0 0 0 0 0 0 1.024e-10 9.269e-08 4.82e-06 7.266e-05 0.0005181 0.002137 0.005436 
0 0 0 0 0 0 0 0 0 0 0 0 0 0 1.971e-12 3.711e-09 3.33e-07 7.884e-06 8.493e-05 0.0005207 0.001917 
0 0 0 0 0 0 0 0 0 0 0 0 0 0 2.699e-14 1.026e-10 1.564e-08 5.756e-07 9.271e-06 8.356e-05 0.0004402 
0 0 0 0 0 0 0 0 0 0 0 0 0 0 2.506e-16 1.893e-12 4.804e-10 2.724e-08 6.508e-07 8.555e-06 6.399e-05 
0 0 0 0 0 0 0 0 0 0 0 0 0 0 1.47e-18 2.211e-14 9.103e-12 7.872e-10 2.774e-08 5.292e-07 5.607e-06 
0 0 0 0 0 0 0 0 0 0 0 0 0 0 0 1.491e-16 9.68e-14 1.262e-11 6.533e-10 1.808e-08 2.726e-07 
0 0 0 0 0 0 0 0 0 0 0 0 0 0 0 4.876e-19 4.874e-16 9.473e-14 7.209e-12 2.914e-10 6.365e-09 
0 0 0 0 0 0 0 0 0 0 0 0 0 0 0 0 7.865e-19 2.274e-16 2.595e-14 1.583e-12 5.294e-11 
0 0 0 0 0 0 0 0 0 0 0 0 0 0 0 0 0 0 4.001e-18 6.353e-16 5.316e-14 
0 0 0 0 0 0 0 0 0 0 0 0 0 0 0 0 0 0 0 0 1.463e-18 
0 0 0 0 0 0 0 0 0 0 0 0 0 0 0 0 0 0 0 0 0 
0 0 0 0 0 0 0 0 0 0 0 0 0 0 0 0 0 0 0 0 0 
0 0 0 0 0 0 0 0 0 0 0 0 0 0 0 0 0 0 0 0 0 
</DataArray>
<DataArray Name="E" NumberOfComponents="1" format="ascii" type="Float64">
6.086 5.846 5.364 4.881 4.399 3.916 3.433 2.95 2.467 1.984 1.501 1.018 0.535 0.05173 -0.4307 -0.912 -1.395 -1.881 -2.367 -2.854 -3.098 
6.086 5.846 5.364 4.881 4.399 3.916 3.433 2.95 2.467 1.984 1.501 1.018 0.535 0.05173 -0.4307 -0.912 -1.395 -1.881 -2.367 -2.854 -3.098 
6.086 5.846 5.364 4.881 4.399 3.916 3.433 2.95 2.467 1.984 1.501 1.018 0.535 0.05173 -0.4307 -0.912 -1.395 -1.881 -2.367 -2.854 -3.098 
6.086 5.846 5.364 4.881 4.399 3.916 3.433 2.95 2.467 1.984 1.501 1.018 0.535 0.05173 -0.4307 -0.912 -1.395 -1.881 -2.367 -2.854 -3.098 
6.086 5.846 5.364 4.881 4.399 3.916 3.433 2.95 2.467 1.984 1.501 1.018 0.535 0.05173 -0.4307 -0.912 -1.395 -1.881 -2.367 -2.854 -3.098 
6.086 5.846 5.364 4.881 4.399 3.916 3.433 2.95 2.467 1.984 1.501 1.018 0.535 0.05173 -0.4307 -0.912 -1.395 -1.881 -2.367 -2.854 -3.098 
6.086 5.846 5.364 4.881 4.399 3.916 3.433 2.95 2.467 1.984 1.501 1.018 0.535 0.05173 -0.4307 -0.912 -1.395 -1.881 -2.367 -2.854 -3.098 
6.086 5.846 5.364 4.881 4.399 3.916 3.433 2.95 2.467 1.984 1.501 1.018 0.535 0.05173 -0.4307 -0.912 -1.395 -1.881 -2.367 -2.854 -3.098 
6.086 5.846 5.364 4.881 4.399 3.916 3.433 2.95 2.467 1.984 1.501 1.018 0.535 0.05173 -0.4307 -0.912 -1.395 -1.881 -2.367 -2.854 -3.098 
6.086 5.846 5.364 4.881 4.399 3.916 3.433 2.95 2.467 1.984 1.501 1.018 0.535 0.05173 -0.4307 -0.912 -1.395 -1.881 -2.367 -2.854 -3.098 
6.086 5.846 5.364 4.881 4.399 3.916 3.433 2.95 2.467 1.984 1.501 1.018 0.535 0.05173 -0.4307 -0.912 -1.395 -1.881 -2.367 -2.854 -3.098 
6.086 5.846 5.364 4.881 4.399 3.916 3.433 2.95 2.467 1.984 1.501 1.018 0.535 0.05173 -0.4307 -0.912 -1.395 -1.881 -2.367 -2.854 -3.098 
6.086 5.846 5.364 4.881 4.399 3.916 3.433 2.95 2.467 1.984 1.501 1.018 0.535 0.05173 -0.4307 -0.912 -1.395 -1.881 -2.367 -2.854 -3.098 
6.086 5.846 5.364 4.881 4.399 3.916 3.433 2.95 2.467 1.984 1.501 1.018 0.535 0.05173 -0.4307 -0.912 -1.395 -1.881 -2.367 -2.854 -3.098 
6.086 5.846 5.364 4.881 4.399 3.916 3.433 2.95 2.467 1.984 1.501 1.018 0.535 0.05173 -0.4307 -0.912 -1.395 -1.881 -2.367 -2.854 -3.098 
6.086 5.846 5.364 4.881 4.399 3.916 3.433 2.95 2.467 1.984 1.501 1.018 0.535 0.05173 -0.4307 -0.912 -1.395 -1.881 -2.367 -2.854 -3.098 
6.086 5.846 5.364 4.881 4.399 3.916 3.433 2.95 2.467 1.984 1.501 1.018 0.535 0.05173 -0.4307 -0.912 -1.395 -1.881 -2.367 -2.854 -3.098 
6.086 5.846 5.364 4.881 4.399 3.916 3.433 2.95 2.467 1.984 1.501 1.018 0.535 0.05173 -0.4307 -0.912 -1.395 -1.881 -2.367 -2.854 -3.098 
6.086 5.846 5.364 4.881 4.399 3.916 3.433 2.95 2.467 1.984 1.501 1.018 0.535 0.05173 -0.4307 -0.912 -1.395 -1.881 -2.367 -2.854 -3.098 
6.086 5.846 5.364 4.881 4.399 3.916 3.433 2.95 2.467 1.984 1.501 1.018 0.535 0.05173 -0.4307 -0.912 -1.395 -1.881 -2.367 -2.854 -3.098 
6.086 5.846 5.364 4.881 4.399 3.916 3.433 2.95 2.467 1.984 1.501 1.018 0.535 0.05173 -0.4307 -0.912 -1.395 -1.881 -2.367 -2.854 -3.098 
6.086 5.846 5.364 4.881 4.399 3.916 3.433 2.95 2.467 1.984 1.501 1.018 0.535 0.05173 -0.4307 -0.912 -1.395 -1.881 -2.367 -2.854 -3.098 
6.086 5.846 5.364 4.881 4.399 3.916 3.433 2.95 2.467 1.984 1.501 1.018 0.535 0.05173 -0.4307 -0.912 -1.395 -1.881 -2.367 -2.854 -3.098 
6.086 5.846 5.364 4.881 4.399 3.916 3.433 2.95 2.467 1.984 1.501 1.018 0.535 0.05173 -0.4307 -0.912 -1.395 -1.881 -2.367 -2.854 -3.098 
6.086 5.846 5.364 4.881 4.399 3.916 3.433 2.95 2.467 1.984 1.501 1.018 0.535 0.05173 -0.4307 -0.912 -1.395 -1.881 -2.367 -2.854 -3.098 
6.086 5.846 5.364 4.881 4.399 3.916 3.433 2.95 2.467 1.984 1.501 1.018 0.535 0.05173 -0.4307 -0.912 -1.395 -1.881 -2.367 -2.854 -3.098 
6.086 5.846 5.364 4.881 4.399 3.916 3.433 2.95 2.467 1.984 1.501 1.018 0.535 0.05173 -0.4307 -0.912 -1.395 -1.881 -2.367 -2.854 -3.098 
6.086 5.846 5.364 4.881 4.399 3.916 3.433 2.95 2.467 1.984 1.501 1.018 0.535 0.05173 -0.4307 -0.912 -1.395 -1.881 -2.367 -2.854 -3.098 
6.086 5.846 5.364 4.881 4.399 3.916 3.433 2.95 2.467 1.984 1.501 1.018 0.535 0.05173 -0.4307 -0.912 -1.395 -1.881 -2.367 -2.854 -3.098 
6.086 5.846 5.364 4.881 4.399 3.916 3.433 2.95 2.467 1.984 1.501 1.018 0.535 0.05173 -0.4307 -0.912 -1.395 -1.881 -2.367 -2.854 -3.098 
6.086 5.846 5.364 4.881 4.399 3.916 3.433 2.95 2.467 1.984 1.501 1.018 0.535 0.05173 -0.4307 -0.912 -1.395 -1.881 -2.367 -2.854 -3.098 
6.086 5.846 5.364 4.881 4.399 3.916 3.433 2.95 2.467 1.984 1.501 1.018 0.535 0.05173 -0.4307 -0.912 -1.395 -1.881 -2.367 -2.854 -3.098 
6.086 5.846 5.364 4.881 4.399 3.916 3.433 2.95 2.467 1.984 1.501 1.018 0.535 0.05173 -0.4307 -0.912 -1.395 -1.881 -2.367 -2.854 -3.098 
6.086 5.846 5.364 4.881 4.399 3.916 3.433 2.95 2.467 1.984 1.501 1.018 0.535 0.05173 -0.4307 -0.912 -1.395 -1.881 -2.367 -2.854 -3.098 
6.086 5.846 5.364 4.881 4.399 3.916 3.433 2.95 2.467 1.984 1.501 1.018 0.535 0.05173 -0.4307 -0.912 -1.395 -1.881 -2.367 -2.854 -3.098 
6.086 5.846 5.364 4.881 4.399 3.916 3.433 2.95 2.467 1.984 1.501 1.018 0.535 0.05173 -0.4307 -0.912 -1.395 -1.881 -2.367 -2.854 -3.098 
6.086 5.846 5.364 4.881 4.399 3.916 3.433 2.95 2.467 1.984 1.501 1.018 0.535 0.05173 -0.4307 -0.912 -1.395 -1.881 -2.367 -2.854 -3.098 
6.086 5.846 5.364 4.881 4.399 3.916 3.433 2.95 2.467 1.984 1.501 1.018 0.535 0.05173 -0.4307 -0.912 -1.395 -1.881 -2.367 -2.854 -3.098 
6.086 5.846 5.364 4.881 4.399 3.916 3.433 2.95 2.467 1.984 1.501 1.018 0.535 0.05173 -0.4307 -0.912 -1.395 -1.881 -2.367 -2.854 -3.098 
6.086 5.846 5.364 4.881 4.399 3.916 3.433 2.95 2.467 1.984 1.501 1.018 0.535 0.05173 -0.4307 -0.912 -1.395 -1.881 -2.367 -2.854 -3.098 
6.086 5.846 5.364 4.881 4.399 3.916 3.433 2.95 2.467 1.984 1.501 1.018 0.535 0.05173 -0.4307 -0.912 -1.395 -1.881 -2.367 -2.854 -3.098 
</DataArray>
<DataArray Name="ne" NumberOfComponents="1" format="ascii" type="Float64">
0.03736 0.03653 0.03585 0.03522 0.03469 0.03425 0.03396 0.03377 0.03369 0.03375 0.03394 0.03426 0.03441 0.03235 0.03808 0.03658 0.03068 0.02769 0.02607 0.02481 0.0241 
0.03736 0.03653 0.03585 0.03522 0.03469 0.03425 0.03396 0.03377 0.03369 0.03375 0.03394 0.03426 0.03441 0.03235 0.03808 0.03658 0.03068 0.02769 0.02607 0.02481 0.0241 
0.03736 0.03653 0.03585 0.03522 0.03469 0.03425 0.03396 0.03377 0.03369 0.03375 0.03394 0.03426 0.03441 0.03235 0.03808 0.03658 0.03068 0.02769 0.02607 0.02481 0.0241 
0.03736 0.03653 0.03585 0.03522 0.03469 0.03425 0.03396 0.03377 0.03369 0.03375 0.03394 0.03426 0.03441 0.03235 0.03808 0.03658 0.03068 0.02769 0.02607 0.02481 0.0241 
0.03736 0.03653 0.03585 0.03522 0.03469 0.03425 0.03396 0.03377 0.03369 0.03375 0.03394 0.03426 0.03441 0.03235 0.03808 0.03658 0.03068 0.02769 0.02607 0.02481 0.0241 
0.03736 0.03653 0.03585 0.03522 0.03469 0.03425 0.03396 0.03377 0.03369 0.03375 0.03394 0.03426 0.03441 0.03235 0.03808 0.03658 0.03068 0.02769 0.02607 0.02481 0.0241 
0.03736 0.03653 0.03585 0.03522 0.03469 0.03425 0.03396 0.03377 0.03369 0.03375 0.03394 0.03426 0.03441 0.03235 0.03808 0.03658 0.03068 0.02769 0.02607 0.02481 0.0241 
0.03736 0.03653 0.03585 0.03522 0.03469 0.03425 0.03396 0.03377 0.03369 0.03375 0.03394 0.03426 0.03441 0.03235 0.03808 0.03658 0.03068 0.02769 0.02607 0.02481 0.0241 
0.03736 0.03653 0.03585 0.03522 0.03469 0.03425 0.03396 0.03377 0.03369 0.03375 0.03394 0.03426 0.03441 0.03235 0.03808 0.03658 0.03068 0.02769 0.02607 0.02481 0.0241 
0.03736 0.03653 0.03585 0.03522 0.03469 0.03425 0.03396 0.03377 0.03369 0.03375 0.03394 0.03426 0.03441 0.03235 0.03808 0.03658 0.03068 0.02769 0.02607 0.02481 0.0241 
0.03736 0.03653 0.03585 0.03522 0.03469 0.03425 0.03396 0.03377 0.03369 0.03375 0.03394 0.03426 0.03441 0.03235 0.03808 0.03658 0.03068 0.02769 0.02607 0.02481 0.0241 
0.03736 0.03653 0.03585 0.03522 0.03469 0.03425 0.03396 0.03377 0.03369 0.03375 0.03394 0.03426 0.03441 0.03235 0.03808 0.03658 0.03068 0.02769 0.02607 0.02481 0.0241 
0.03736 0.03653 0.03585 0.03522 0.03469 0.03425 0.03396 0.03377 0.03369 0.03375 0.03394 0.03426 0.03441 0.03235 0.03808 0.03658 0.03068 0.02769 0.02607 0.02481 0.0241 
0.03736 0.03653 0.03585 0.03522 0.03469 0.03425 0.03396 0.03377 0.03369 0.03375 0.03394 0.03426 0.03441 0.03235 0.03808 0.03658 0.03068 0.02769 0.02607 0.02481 0.0241 
0.03736 0.03653 0.03585 0.03522 0.03469 0.03425 0.03396 0.03377 0.03369 0.03375 0.03394 0.03426 0.03441 0.03235 0.03808 0.03658 0.03068 0.02769 0.02607 0.02481 0.0241 
0.03736 0.03653 0.03585 0.03522 0.03469 0.03425 0.03396 0.03377 0.03369 0.03375 0.03394 0.03426 0.03441 0.03235 0.03808 0.03658 0.03068 0.02769 0.02607 0.02481 0.0241 
0.03736 0.03653 0.03585 0.03522 0.03469 0.03425 0.03396 0.03377 0.03369 0.03375 0.03394 0.03426 0.03441 0.03235 0.03808 0.03658 0.03068 0.02769 0.02607 0.02481 0.0241 
0.03736 0.03653 0.03585 0.03522 0.03469 0.03425 0.03396 0.03377 0.03369 0.03375 0.03394 0.03426 0.03441 0.03235 0.03808 0.03658 0.03068 0.02769 0.02607 0.02481 0.0241 
0.03736 0.03653 0.03585 0.03522 0.03469 0.03425 0.03396 0.03377 0.03369 0.03375 0.03394 0.03426 0.03441 0.03235 0.03808 0.03658 0.03068 0.02769 0.02607 0.02481 0.0241 
0.03736 0.03653 0.03585 0.03522 0.03469 0.03425 0.03396 0.03377 0.03369 0.03375 0.03394 0.03426 0.03441 0.03235 0.03808 0.03658 0.03068 0.02769 0.02607 0.02481 0.0241 
0.03736 0.03653 0.03585 0.03522 0.03469 0.03425 0.03396 0.03377 0.03369 0.03375 0.03394 0.03426 0.03441 0.03235 0.03808 0.03658 0.03068 0.02769 0.02607 0.02481 0.0241 
0.03736 0.03653 0.03585 0.03522 0.03469 0.03425 0.03396 0.03377 0.03369 0.03375 0.03394 0.03426 0.03441 0.03235 0.03808 0.03658 0.03068 0.02769 0.02607 0.02481 0.0241 
0.03736 0.03653 0.03585 0.03522 0.03469 0.03425 0.03396 0.03377 0.03369 0.03375 0.03394 0.03426 0.03441 0.03235 0.03808 0.03658 0.03068 0.02769 0.02607 0.02481 0.0241 
0.03736 0.03653 0.03585 0.03522 0.03469 0.03425 0.03396 0.03377 0.03369 0.03375 0.03394 0.03426 0.03441 0.03235 0.03808 0.03658 0.03068 0.02769 0.02607 0.02481 0.0241 
0.03736 0.03653 0.03585 0.03522 0.03469 0.03425 0.03396 0.03377 0.03369 0.03375 0.03394 0.03426 0.03441 0.03235 0.03808 0.03658 0.03068 0.02769 0.02607 0.02481 0.0241 
0.03736 0.03653 0.03585 0.03522 0.03469 0.03425 0.03396 0.03377 0.03369 0.03375 0.03394 0.03426 0.03441 0.03235 0.03808 0.03658 0.03068 0.02769 0.02607 0.02481 0.0241 
0.03736 0.03653 0.03585 0.03522 0.03469 0.03425 0.03396 0.03377 0.03369 0.03375 0.03394 0.03426 0.03441 0.03235 0.03808 0.03658 0.03068 0.02769 0.02607 0.02481 0.0241 
0.03736 0.03653 0.03585 0.03522 0.03469 0.03425 0.03396 0.03377 0.03369 0.03375 0.03394 0.03426 0.03441 0.03235 0.03808 0.03658 0.03068 0.02769 0.02607 0.02481 0.0241 
0.03736 0.03653 0.03585 0.03522 0.03469 0.03425 0.03396 0.03377 0.03369 0.03375 0.03394 0.03426 0.03441 0.03235 0.03808 0.03658 0.03068 0.02769 0.02607 0.02481 0.0241 
0.03736 0.03653 0.03585 0.03522 0.03469 0.03425 0.03396 0.03377 0.03369 0.03375 0.03394 0.03426 0.03441 0.03235 0.03808 0.03658 0.03068 0.02769 0.02607 0.02481 0.0241 
0.03736 0.03653 0.03585 0.03522 0.03469 0.03425 0.03396 0.03377 0.03369 0.03375 0.03394 0.03426 0.03441 0.03235 0.03808 0.03658 0.03068 0.02769 0.02607 0.02481 0.0241 
0.03736 0.03653 0.03585 0.03522 0.03469 0.03425 0.03396 0.03377 0.03369 0.03375 0.03394 0.03426 0.03441 0.03235 0.03808 0.03658 0.03068 0.02769 0.02607 0.02481 0.0241 
0.03736 0.03653 0.03585 0.03522 0.03469 0.03425 0.03396 0.03377 0.03369 0.03375 0.03394 0.03426 0.03441 0.03235 0.03808 0.03658 0.03068 0.02769 0.02607 0.02481 0.0241 
0.03736 0.03653 0.03585 0.03522 0.03469 0.03425 0.03396 0.03377 0.03369 0.03375 0.03394 0.03426 0.03441 0.03235 0.03808 0.03658 0.03068 0.02769 0.02607 0.02481 0.0241 
0.03736 0.03653 0.03585 0.03522 0.03469 0.03425 0.03396 0.03377 0.03369 0.03375 0.03394 0.03426 0.03441 0.03235 0.03808 0.03658 0.03068 0.02769 0.02607 0.02481 0.0241 
0.03736 0.03653 0.03585 0.03522 0.03469 0.03425 0.03396 0.03377 0.03369 0.03375 0.03394 0.03426 0.03441 0.03235 0.03808 0.03658 0.03068 0.02769 0.02607 0.02481 0.0241 
0.03736 0.03653 0.03585 0.03522 0.03469 0.03425 0.03396 0.03377 0.03369 0.03375 0.03394 0.03426 0.03441 0.03235 0.03808 0.03658 0.03068 0.02769 0.02607 0.02481 0.0241 
0.03736 0.03653 0.03585 0.03522 0.03469 0.03425 0.03396 0.03377 0.03369 0.03375 0.03394 0.03426 0.03441 0.03235 0.03808 0.03658 0.03068 0.02769 0.02607 0.02481 0.0241 
0.03736 0.03653 0.03585 0.03522 0.03469 0.03425 0.03396 0.03377 0.03369 0.03375 0.03394 0.03426 0.03441 0.03235 0.03808 0.03658 0.03068 0.02769 0.02607 0.02481 0.0241 
0.03736 0.03653 0.03585 0.03522 0.03469 0.03425 0.03396 0.03377 0.03369 0.03375 0.03394 0.03426 0.03441 0.03235 0.03808 0.03658 0.03068 0.02769 0.02607 0.02481 0.0241 
0.03736 0.03653 0.03585 0.03522 0.03469 0.03425 0.03396 0.03377 0.03369 0.03375 0.03394 0.03426 0.03441 0.03235 0.03808 0.03658 0.03068 0.02769 0.02607 0.02481 0.0241 
</DataArray>
</PointData>
</Piece>
</ImageData>
</VTKFile>
