<VTKFile type="ImageData">
<ImageData Origin="0 -10 0" Spacing="0.5 0.5 1" WholeExtent="0 20 0 40 0 0">
<Piece Extent="0 20 0 40 0 0">
<PointData>
<DataArray Name="f" NumberOfComponents="1" format="ascii" type="Float64">
0.003783 0.003782 0.003781 0.00378 0.003779 0.003778 0.003778 0.003777 0.003776 0.003775 0.003775 0.003775 0.003774 0.003774 0.003774 0.003775 0.003775 0.003776 0.003778 0.003779 0.003783 
0.008608 0.008605 0.008603 0.008601 0.008599 0.008597 0.008596 0.008594 0.008593 0.008591 0.00859 0.008589 0.008589 0.008588 0.008589 0.008589 0.008591 0.008593 0.008596 0.008598 0.008608 
0.01789 0.01788 0.01788 0.01787 0.01787 0.01787 0.01786 0.01786 0.01786 0.01786 0.01785 0.01785 0.01785 0.01785 0.01785 0.01785 0.01785 0.01786 0.01787 0.01787 0.01789 
0.03397 0.03396 0.03395 0.03395 0.03394 0.03394 0.03393 0.03392 0.03392 0.03391 0.03391 0.03391 0.03391 0.0339 0.03391 0.0339 0.03391 0.03391 0.03393 0.03393 0.03397 
0.05897 0.05895 0.05895 0.05894 0.05893 0.05892 0.05891 0.0589 0.0589 0.05889 0.05888 0.05888 0.05888 0.05887 0.05887 0.05887 0.05888 0.05888 0.05891 0.05891 0.05897 
0.09359 0.09358 0.09357 0.09355 0.09354 0.09353 0.09352 0.09351 0.0935 0.09349 0.09348 0.09348 0.09347 0.09347 0.09347 0.09347 0.09348 0.09348 0.09352 0.09352 0.09359 
0.1358 0.1358 0.1358 0.1358 0.1357 0.1357 0.1357 0.1357 0.1357 0.1357 0.1357 0.1357 0.1357 0.1357 0.1357 0.1357 0.1357 0.1357 0.1357 0.1357 0.1358 
0.1801 0.18 0.18 0.18 0.18 0.18 0.18 0.18 0.18 0.18 0.1799 0.1799 0.1799 0.1799 0.1799 0.1799 0.1799 0.1799 0.18 0.18 0.1801 
0.218 0.218 0.218 0.218 0.218 0.218 0.218 0.218 0.218 0.218 0.218 0.218 0.218 0.2179 0.2179 0.2179 0.2179 0.218 0.218 0.218 0.218 
0.2409 0.2409 0.2409 0.2409 0.2409 0.2409 0.2409 0.2409 0.2409 0.2409 0.2409 0.2409 0.2409 0.2409 0.2409 0.2409 0.2409 0.2409 0.2409 0.2409 0.2409 
0.2427 0.2427 0.2427 0.2427 0.2427 0.2427 0.2427 0.2427 0.2427 0.2427 0.2427 0.2427 0.2427 0.2427 0.2427 0.2427 0.2427 0.2427 0.2427 0.2427 0.2427 
0.2225 0.2225 0.2225 0.2225 0.2225 0.2225 0.2225 0.2225 0.2225 0.2225 0.2226 0.2226 0.2226 0.2226 0.2226 0.2226 0.2226 0.2226 0.2226 0.2225 0.2225 
0.1854 0.1853 0.1854 0.1854 0.1854 0.1854 0.1854 0.1854 0.1854 0.1854 0.1855 0.1855 0.1855 0.1855 0.1855 0.1855 0.1855 0.1855 0.1855 0.1854 0.1854 
0.1401 0.14 0.14 0.1401 0.1401 0.1401 0.1401 0.1401 0.1401 0.1401 0.1401 0.1402 0.1402 0.1402 0.1402 0.1402 0.1402 0.1402 0.1402 0.1402 0.1401 
0.09576 0.09573 0.09574 0.09575 0.09577 0.09578 0.09579 0.0958 0.09581 0.09582 0.09583 0.09584 0.09585 0.09586 0.09587 0.09588 0.09589 0.09589 0.09587 0.09585 0.09576 
0.05909 0.05906 0.05907 0.05908 0.05909 0.0591 0.05911 0.05911 0.05912 0.05913 0.05914 0.05915 0.05916 0.05916 0.05917 0.05918 0.05918 0.05918 0.05918 0.05916 0.05909 
0.03281 0.03279 0.03279 0.0328 0.03281 0.03281 0.03282 0.03282 0.03283 0.03283 0.03284 0.03284 0.03285 0.03285 0.03286 0.03286 0.03287 0.03287 0.03287 0.03286 0.03281 
0.01634 0.01632 0.01633 0.01633 0.01633 0.01633 0.01634 0.01634 0.01634 0.01635 0.01635 0.01635 0.01636 0.01636 0.01636 0.01636 0.01637 0.01637 0.01637 0.01636 0.01634 
0.007268 0.007258 0.00726 0.007262 0.007263 0.007265 0.007266 0.007268 0.007269 0.007271 0.007272 0.007274 0.007275 0.007277 0.007278 0.007279 0.007281 0.007282 0.007283 0.007281 0.007268 
0.002876 0.002871 0.002872 0.002872 0.002873 0.002874 0.002874 0.002875 0.002876 0.002876 0.002877 0.002878 0.002878 0.002879 0.00288 0.00288 0.002881 0.002881 0.002882 0.002882 0.002876 
0.001008 0.001005 0.001006 0.001006 0.001006 0.001006 0.001007 0.001007 0.001007 0.001007 0.001008 0.001008 0.001008 0.001008 0.001009 0.001009 0.001009 0.001009 0.00101 0.00101 0.001008 
0.0003108 0.0003101 0.0003101 0.0003102 0.0003102 0.0003103 0.0003104 0.0003105 0.0003106 0.0003107 0.0003107 0.0003108 0.0003109 0.000311 0.0003111 0.0003111 0.0003112 0.0003113 0.0003114 0.0003114 0.0003108 
8.395e-05 8.375e-05 8.372e-05 8.373e-05 8.375e-05 8.377e-05 8.38e-05 8.382e-05 8.385e-05 8.387e-05 8.389e-05 8.392e-05 8.394e-05 8.397e-05 8.399e-05 8.401e-05 8.404e-05 8.406e-05 8.408e-05 8.41e-05 8.395e-05 
1.972e-05 1.968e-05 1.967e-05 1.966e-05 1.967e-05 1.967e-05 1.968e-05 1.969e-05 1.969e-05 1.97e-05 1.97e-05 1.971e-05 1.972e-05 1.972e-05 1.973e-05 1.973e-05 1.974e-05 1.974e-05 1.975e-05 1.976e-05 1.972e-05 
4.004e-06 3.993e-06 3.991e-06 3.99e-06 3.991e-06 3.992e-06 3.993e-06 3.994e-06 3.995e-06 3.997e-06 3.998e-06 3.999e-06 4.001e-06 4.002e-06 4.003e-06 4.004e-06 4.005e-06 4.007e-06 4.008e-06 4.009e-06 4.004e-06 
6.968e-07 6.951e-07 6.945e-07 6.944e-07 6.944e-07 6.945e-07 6.947e-07 6.949e-07 6.952e-07 6.954e-07 6.956e-07 6.959e-07 6.961e-07 6.963e-07 6.966e-07 6.968e-07 6.97e-07 6.972e-07 6.974e-07 6.977e-07 6.968e-07 
1.032e-07 1.029e-07 1.029e-07 1.028e-07 1.028e-07 1.028e-07 1.029e-07 1.029e-07 1.029e-07 1.03e-07 1.03e-07 1.03e-07 1.031e-07 1.031e-07 1.031e-07 1.032e-07 1.032e-07 1.032e-07 1.033e-07 1.033e-07 1.032e-07 
1.29e-08 1.287e-08 1.286e-08 1.285e-08 1.285e-08 1.285e-08 1.285e-08 1.286e-08 1.286e-08 1.287e-08 1.287e-08 1.287e-08 1.288e-08 1.288e-08 1.289e-08 1.289e-08 1.29e-08 1.29e-08 1.291e-08 1.291e-08 1.29e-08 
1.36e-09 1.356e-09 1.355e-09 1.354e-09 1.354e-09 1.354e-09 1.354e-09 1.355e-09 1.355e-09 1.356e-09 1.356e-09 1.357e-09 1.357e-09 1.358e-09 1.358e-09 1.359e-09 1.359e-09 1.36e-09 1.36e-09 1.36e-09 1.36e-09 
2.091e-10 2.091e-10 2.091e-10 2.091e-10 2.091e-10 2.092e-10 2.092e-10 2.092e-10 2.092e-10 2.092e-10 2.092e-10 2.092e-10 2.092e-10 2.092e-10 2.091e-10 2.091e-10 2.091e-10 2.091e-10 2.091e-10 2.091e-10 2.091e-10 
7.3e-10 7.324e-10 7.33e-10 7.337e-10 7.339e-10 7.34e-10 7.339e-10 7.337e-10 7.335e-10 7.332e-10 7.329e-10 7.326e-10 7.322e-10 7.319e-10 7.315e-10 7.312e-10 7.308e-10 7.305e-10 7.301e-10 7.298e-10 7.3e-10 
5.015e-09 5.031e-09 5.035e-09 5.04e-09 5.041e-09 5.042e-09 5.041e-09 5.041e-09 5.039e-09 5.037e-09 5.035e-09 5.033e-09 5.031e-09 5.029e-09 5.026e-09 5.024e-09 5.022e-09 5.019e-09 5.017e-09 5.015e-09 5.015e-09 
3.101e-08 3.11e-08 3.112e-08 3.115e-08 3.116e-08 3.117e-08 3.116e-08 3.116e-08 3.115e-08 3.114e-08 3.113e-08 3.112e-08 3.111e-08 3.109e-08 3.108e-08 3.107e-08 3.105e-08 3.104e-08 3.103e-08 3.101e-08 3.101e-08 
1.714e-07 1.719e-07 1.719e-07 1.721e-07 1.721e-07 1.722e-07 1.722e-07 1.722e-07 1.721e-07 1.721e-07 1.72e-07 1.72e-07 1.719e-07 1.718e-07 1.718e-07 1.717e-07 1.716e-07 1.715e-07 1.715e-07 1.714e-07 1.714e-07 
8.495e-07 8.517e-07 8.519e-07 8.529e-07 8.529e-07 8.533e-07 8.532e-07 8.533e-07 8.53e-07 8.529e-07 8.526e-07 8.523e-07 8.52e-07 8.517e-07 8.514e-07 8.511e-07 8.507e-07 8.504e-07 8.501e-07 8.497e-07 8.495e-07 
3.79e-06 3.799e-06 3.8e-06 3.805e-06 3.804e-06 3.806e-06 3.805e-06 3.806e-06 3.805e-06 3.804e-06 3.803e-06 3.802e-06 3.801e-06 3.8e-06 3.798e-06 3.797e-06 3.796e-06 3.794e-06 3.793e-06 3.791e-06 3.79e-06 
1.526e-05 1.53e-05 1.53e-05 1.532e-05 1.532e-05 1.532e-05 1.532e-05 1.532e-05 1.532e-05 1.532e-05 1.532e-05 1.531e-05 1.531e-05 1.53e-05 1.53e-05 1.529e-05 1.529e-05 1.528e-05 1.528e-05 1.527e-05 1.526e-05 
5.564e-05 5.575e-05 5.576e-05 5.581e-05 5.582e-05 5.584e-05 5.584e-05 5.584e-05 5.584e-05 5.583e-05 5.582e-05 5.58e-05 5.579e-05 5.577e-05 5.575e-05 5.573e-05 5.572e-05 5.57e-05 5.568e-05 5.566e-05 5.564e-05 
0.000184 0.0001843 0.0001843 0.0001845 0.0001845 0.0001846 0.0001846 0.0001846 0.0001846 0.0001846 0.0001845 0.0001845 0.0001844 0.0001844 0.0001843 0.0001842 0.0001842 0.0001841 0.0001841 0.000184 0.000184 
0.0005529 0.0005539 0.0005541 0.0005544 0.0005546 0.0005547 0.0005547 0.0005546 0.0005545 0.0005544 0.0005542 0.0005541 0.0005539 0.0005538 0.0005536 0.0005535 0.0005534 0.0005532 0.0005531 0.000553 0.0005529 
0.001514 0.001516 0.001517 0.001517 0.001517 0.001517 0.001516 0.001516 0.001516 0.001515 0.001515 0.001515 0.001514 0.001514 0.001514 0.001514 0.001514 0.001514 0.001514 0.001514 0.001514 
</DataArray>
<DataArray Name="E" NumberOfComponents="1" format="ascii" type="Float64">
1.504 1.504 1.504 1.503 1.503 1.502 1.502 1.501 1.501 1.5 1.5 1.499 1.499 1.499 1.498 1.498 1.497 1.497 1.497 1.496 1.496 
1.504 1.504 1.504 1.503 1.503 1.502 1.502 1.501 1.501 1.5 1.5 1.499 1.499 1.499 1.498 1.498 1.497 1.497 1.497 1.496 1.496 
1.504 1.504 1.504 1.503 1.503 1.502 1.502 1.501 1.501 1.5 1.5 1.499 1.499 1.499 1.498 1.498 1.497 1.497 1.497 1.496 1.496 
1.504 1.504 1.504 1.503 1.503 1.502 1.502 1.501 1.501 1.5 1.5 1.499 1.499 1.499 1.498 1.498 1.497 1.497 1.497 1.496 1.496 
1.504 1.504 1.504 1.503 1.503 1.502 1.502 1.501 1.501 1.5 1.5 1.499 1.499 1.499 1.498 1.498 1.497 1.497 1.497 1.496 1.496 
1.504 1.504 1.504 1.503 1.503 1.502 1.502 1.501 1.501 1.5 1.5 1.499 1.499 1.499 1.498 1.498 1.497 1.497 1.497 1.496 1.496 
1.504 1.504 1.504 1.503 1.503 1.502 1.502 1.501 1.501 1.5 1.5 1.499 1.499 1.499 1.498 1.498 1.497 1.497 1.497 1.496 1.496 
1.504 1.504 1.504 1.503 1.503 1.502 1.502 1.501 1.501 1.5 1.5 1.499 1.499 1.499 1.498 1.498 1.497 1.497 1.497 1.496 1.496 
1.504 1.504 1.504 1.503 1.503 1.502 1.502 1.501 1.501 1.5 1.5 1.499 1.499 1.499 1.498 1.498 1.497 1.497 1.497 1.496 1.496 
1.504 1.504 1.504 1.503 1.503 1.502 1.502 1.501 1.501 1.5 1.5 1.499 1.499 1.499 1.498 1.498 1.497 1.497 1.497 1.496 1.496 
1.504 1.504 1.504 1.503 1.503 1.502 1.502 1.501 1.501 1.5 1.5 1.499 1.499 1.499 1.498 1.498 1.497 1.497 1.497 1.496 1.496 
1.504 1.504 1.504 1.503 1.503 1.502 1.502 1.501 1.501 1.5 1.5 1.499 1.499 1.499 1.498 1.498 1.497 1.497 1.497 1.496 1.496 
1.504 1.504 1.504 1.503 1.503 1.502 1.502 1.501 1.501 1.5 1.5 1.499 1.499 1.499 1.498 1.498 1.497 1.497 1.497 1.496 1.496 
1.504 1.504 1.504 1.503 1.503 1.502 1.502 1.501 1.501 1.5 1.5 1.499 1.499 1.499 1.498 1.498 1.497 1.497 1.497 1.496 1.496 
1.504 1.504 1.504 1.503 1.503 1.502 1.502 1.501 1.501 1.5 1.5 1.499 1.499 1.499 1.498 1.498 1.497 1.497 1.497 1.496 1.496 
1.504 1.504 1.504 1.503 1.503 1.502 1.502 1.501 1.501 1.5 1.5 1.499 1.499 1.499 1.498 1.498 1.497 1.497 1.497 1.496 1.496 
1.504 1.504 1.504 1.503 1.503 1.502 1.502 1.501 1.501 1.5 1.5 1.499 1.499 1.499 1.498 1.498 1.497 1.497 1.497 1.496 1.496 
1.504 1.504 1.504 1.503 1.503 1.502 1.502 1.501 1.501 1.5 1.5 1.499 1.499 1.499 1.498 1.498 1.497 1.497 1.497 1.496 1.496 
1.504 1.504 1.504 1.503 1.503 1.502 1.502 1.501 1.501 1.5 1.5 1.499 1.499 1.499 1.498 1.498 1.497 1.497 1.497 1.496 1.496 
1.504 1.504 1.504 1.503 1.503 1.502 1.502 1.501 1.501 1.5 1.5 1.499 1.499 1.499 1.498 1.498 1.497 1.497 1.497 1.496 1.496 
1.504 1.504 1.504 1.503 1.503 1.502 1.502 1.501 1.501 1.5 1.5 1.499 1.499 1.499 1.498 1.498 1.497 1.497 1.497 1.496 1.496 
1.504 1.504 1.504 1.503 1.503 1.502 1.502 1.501 1.501 1.5 1.5 1.499 1.499 1.499 1.498 1.498 1.497 1.497 1.497 1.496 1.496 
1.504 1.504 1.504 1.503 1.503 1.502 1.502 1.501 1.501 1.5 1.5 1.499 1.499 1.499 1.498 1.498 1.497 1.497 1.497 1.496 1.496 
1.504 1.504 1.504 1.503 1.503 1.502 1.502 1.501 1.501 1.5 1.5 1.499 1.499 1.499 1.498 1.498 1.497 1.497 1.497 1.496 1.496 
1.504 1.504 1.504 1.503 1.503 1.502 1.502 1.501 1.501 1.5 1.5 1.499 1.499 1.499 1.498 1.498 1.497 1.497 1.497 1.496 1.496 
1.504 1.504 1.504 1.503 1.503 1.502 1.502 1.501 1.501 1.5 1.5 1.499 1.499 1.499 1.498 1.498 1.497 1.497 1.497 1.496 1.496 
1.504 1.504 1.504 1.503 1.503 1.502 1.502 1.501 1.501 1.5 1.5 1.499 1.499 1.499 1.498 1.498 1.497 1.497 1.497 1.496 1.496 
1.504 1.504 1.504 1.503 1.503 1.502 1.502 1.501 1.501 1.5 1.5 1.499 1.499 1.499 1.498 1.498 1.497 1.497 1.497 1.496 1.496 
1.504 1.504 1.504 1.503 1.503 1.502 1.502 1.501 1.501 1.5 1.5 1.499 1.499 1.499 1.498 1.498 1.497 1.497 1.497 1.496 1.496 
1.504 1.504 1.504 1.503 1.503 1.502 1.502 1.501 1.501 1.5 1.5 1.499 1.499 1.499 1.498 1.498 1.497 1.497 1.497 1.496 1.496 
1.504 1.504 1.504 1.503 1.503 1.502 1.502 1.501 1.501 1.5 1.5 1.499 1.499 1.499 1.498 1.498 1.497 1.497 1.497 1.496 1.496 
1.504 1.504 1.504 1.503 1.503 1.502 1.502 1.501 1.501 1.5 1.5 1.499 1.499 1.499 1.498 1.498 1.497 1.497 1.497 1.496 1.496 
1.504 1.504 1.504 1.503 1.503 1.502 1.502 1.501 1.501 1.5 1.5 1.499 1.499 1.499 1.498 1.498 1.497 1.497 1.497 1.496 1.496 
1.504 1.504 1.504 1.503 1.503 1.502 1.502 1.501 1.501 1.5 1.5 1.499 1.499 1.499 1.498 1.498 1.497 1.497 1.497 1.496 1.496 
1.504 1.504 1.504 1.503 1.503 1.502 1.502 1.501 1.501 1.5 1.5 1.499 1.499 1.499 1.498 1.498 1.497 1.497 1.497 1.496 1.496 
1.504 1.504 1.504 1.503 1.503 1.502 1.502 1.501 1.501 1.5 1.5 1.499 1.499 1.499 1.498 1.498 1.497 1.497 1.497 1.496 1.496 
1.504 1.504 1.504 1.503 1.503 1.502 1.502 1.501 1.501 1.5 1.5 1.499 1.499 1.499 1.498 1.498 1.497 1.497 1.497 1.496 1.496 
1.504 1.504 1.504 1.503 1.503 1.502 1.502 1.501 1.501 1.5 1.5 1.499 1.499 1.499 1.498 1.498 1.497 1.497 1.497 1.496 1.496 
1.504 1.504 1.504 1.503 1.503 1.502 1.502 1.501 1.501 1.5 1.5 1.499 1.499 1.499 1.498 1.498 1.497 1.497 1.497 1.496 1.496 
1.504 1.504 1.504 1.503 1.503 1.502 1.502 1.501 1.501 1.5 1.5 1.499 1.499 1.499 1.498 1.498 1.497 1.497 1.497 1.496 1.496 
1.504 1.504 1.504 1.503 1.503 1.502 1.502 1.501 1.501 1.5 1.5 1.499 1.499 1.499 1.498 1.498 1.497 1.497 1.497 1.496 1.496 
</DataArray>
<DataArray Name="ne" NumberOfComponents="1" format="ascii" type="Float64">
0.9992 0.9991 0.9991 0.9991 0.9991 0.9991 0.9991 0.9991 0.9991 0.9991 0.9991 0.9991 0.9991 0.9991 0.9992 0.9992 0.9992 0.9992 0.9992 0.9993 0.9992 
0.9992 0.9991 0.9991 0.9991 0.9991 0.9991 0.9991 0.9991 0.9991 0.9991 0.9991 0.9991 0.9991 0.9991 0.9992 0.9992 0.9992 0.9992 0.9992 0.9993 0.9992 
0.9992 0.9991 0.9991 0.9991 0.9991 0.9991 0.9991 0.9991 0.9991 0.9991 0.9991 0.9991 0.9991 0.9991 0.9992 0.9992 0.9992 0.9992 0.9992 0.9993 0.9992 
0.9992 0.9991 0.9991 0.9991 0.9991 0.9991 0.9991 0.9991 0.9991 0.9991 0.9991 0.9991 0.9991 0.9991 0.9992 0.9992 0.9992 0.9992 0.9992 0.9993 0.9992 
0.9992 0.9991 0.9991 0.9991 0.9991 0.9991 0.9991 0.9991 0.9991 0.9991 0.9991 0.9991 0.9991 0.9991 0.9992 0.9992 0.9992 0.9992 0.9992 0.9993 0.9992 
0.9992 0.9991 0.9991 0.9991 0.9991 0.9991 0.9991 0.9991 0.9991 0.9991 0.9991 0.9991 0.9991 0.9991 0.9992 0.9992 0.9992 0.9992 0.9992 0.9993 0.9992 
0.9992 0.9991 0.9991 0.9991 0.9991 0.9991 0.9991 0.9991 0.9991 0.9991 0.9991 0.9991 0.9991 0.9991 0.9992 0.9992 0.9992 0.9992 0.9992 0.9993 0.9992 
0.9992 0.9991 0.9991 0.9991 0.9991 0.9991 0.9991 0.9991 0.9991 0.9991 0.9991 0.9991 0.9991 0.9991 0.9992 0.9992 0.9992 0.9992 0.9992 0.9993 0.9992 
0.9992 0.9991 0.9991 0.9991 0.9991 0.9991 0.9991 0.9991 0.9991 0.9991 0.9991 0.9991 0.9991 0.9991 0.9992 0.9992 0.9992 0.9992 0.9992 0.9993 0.9992 
0.9992 0.9991 0.9991 0.9991 0.9991 0.9991 0.9991 0.9991 0.9991 0.9991 0.9991 0.9991 0.9991 0.9991 0.9992 0.9992 0.9992 0.9992 0.9992 0.9993 0.9992 
0.9992 0.9991 0.9991 0.9991 0.9991 0.9991 0.9991 0.9991 0.9991 0.9991 0.9991 0.9991 0.9991 0.9991 0.9992 0.9992 0.9992 0.9992 0.9992 0.9993 0.9992 
0.9992 0.9991 0.9991 0.9991 0.9991 0.9991 0.9991 0.9991 0.9991 0.9991 0.9991 0.9991 0.9991 0.9991 0.9992 0.9992 0.9992 0.9992 0.9992 0.9993 0.9992 
0.9992 0.9991 0.9991 0.9991 0.9991 0.9991 0.9991 0.9991 0.9991 0.9991 0.9991 0.9991 0.9991 0.9991 0.9992 0.9992 0.9992 0.9992 0.9992 0.9993 0.9992 
0.9992 0.9991 0.9991 0.9991 0.9991 0.9991 0.9991 0.9991 0.9991 0.9991 0.9991 0.9991 0.9991 0.9991 0.9992 0.9992 0.9992 0.9992 0.9992 0.9993 0.9992 
0.9992 0.9991 0.9991 0.9991 0.9991 0.9991 0.9991 0.9991 0.9991 0.9991 0.9991 0.9991 0.9991 0.9991 0.9992 0.9992 0.9992 0.9992 0.9992 0.9993 0.9992 
0.9992 0.9991 0.9991 0.9991 0.9991 0.9991 0.9991 0.9991 0.9991 0.9991 0.9991 0.9991 0.9991 0.9991 0.9992 0.9992 0.9992 0.9992 0.9992 0.9993 0.9992 
0.9992 0.9991 0.9991 0.9991 0.9991 0.9991 0.9991 0.9991 0.9991 0.9991 0.9991 0.9991 0.9991 0.9991 0.9992 0.9992 0.9992 0.9992 0.9992 0.9993 0.9992 
0.9992 0.9991 0.9991 0.9991 0.9991 0.9991 0.9991 0.9991 0.9991 0.9991 0.9991 0.9991 0.9991 0.9991 0.9992 0.9992 0.9992 0.9992 0.9992 0.9993 0.9992 
0.9992 0.9991 0.9991 0.9991 0.9991 0.9991 0.9991 0.9991 0.9991 0.9991 0.9991 0.9991 0.9991 0.9991 0.9992 0.9992 0.9992 0.9992 0.9992 0.9993 0.9992 
0.9992 0.9991 0.9991 0.9991 0.9991 0.9991 0.9991 0.9991 0.9991 0.9991 0.9991 0.9991 0.9991 0.9991 0.9992 0.9992 0.9992 0.9992 0.9992 0.9993 0.9992 
0.9992 0.9991 0.9991 0.9991 0.9991 0.9991 0.9991 0.9991 0.9991 0.9991 0.9991 0.9991 0.9991 0.9991 0.9992 0.9992 0.9992 0.9992 0.9992 0.9993 0.9992 
0.9992 0.9991 0.9991 0.9991 0.9991 0.9991 0.9991 0.9991 0.9991 0.9991 0.9991 0.9991 0.9991 0.9991 0.9992 0.9992 0.9992 0.9992 0.9992 0.9993 0.9992 
0.9992 0.9991 0.9991 0.9991 0.9991 0.9991 0.9991 0.9991 0.9991 0.9991 0.9991 0.9991 0.9991 0.9991 0.9992 0.9992 0.9992 0.9992 0.9992 0.9993 0.9992 
0.9992 0.9991 0.9991 0.9991 0.9991 0.9991 0.9991 0.9991 0.9991 0.9991 0.9991 0.9991 0.9991 0.9991 0.9992 0.9992 0.9992 0.9992 0.9992 0.9993 0.9992 
0.9992 0.9991 0.9991 0.9991 0.9991 0.9991 0.9991 0.9991 0.9991 0.9991 0.9991 0.9991 0.9991 0.9991 0.9992 0.9992 0.9992 0.9992 0.9992 0.9993 0.9992 
0.9992 0.9991 0.9991 0.9991 0.9991 0.9991 0.9991 0.9991 0.9991 0.9991 0.9991 0.9991 0.9991 0.9991 0.9992 0.9992 0.9992 0.9992 0.9992 0.9993 0.9992 
0.9992 0.9991 0.9991 0.9991 0.9991 0.9991 0.9991 0.9991 0.9991 0.9991 0.9991 0.9991 0.9991 0.9991 0.9992 0.9992 0.9992 0.9992 0.9992 0.9993 0.9992 
0.9992 0.9991 0.9991 0.9991 0.9991 0.9991 0.9991 0.9991 0.9991 0.9991 0.9991 0.9991 0.9991 0.9991 0.9992 0.9992 0.9992 0.9992 0.9992 0.9993 0.9992 
0.9992 0.9991 0.9991 0.9991 0.9991 0.9991 0.9991 0.9991 0.9991 0.9991 0.9991 0.9991 0.9991 0.9991 0.9992 0.9992 0.9992 0.9992 0.9992 0.9993 0.9992 
0.9992 0.9991 0.9991 0.9991 0.9991 0.9991 0.9991 0.9991 0.9991 0.9991 0.9991 0.9991 0.9991 0.9991 0.9992 0.9992 0.9992 0.9992 0.9992 0.9993 0.9992 
0.9992 0.9991 0.9991 0.9991 0.9991 0.9991 0.9991 0.9991 0.9991 0.9991 0.9991 0.9991 0.9991 0.9991 0.9992 0.9992 0.9992 0.9992 0.9992 0.9993 0.9992 
0.9992 0.9991 0.9991 0.9991 0.9991 0.9991 0.9991 0.9991 0.9991 0.9991 0.9991 0.9991 0.9991 0.9991 0.9992 0.9992 0.9992 0.9992 0.9992 0.9993 0.9992 
0.9992 0.9991 0.9991 0.9991 0.9991 0.9991 0.9991 0.9991 0.9991 0.9991 0.9991 0.9991 0.9991 0.9991 0.9992 0.9992 0.9992 0.9992 0.9992 0.9993 0.9992 
0.9992 0.9991 0.9991 0.9991 0.9991 0.9991 0.9991 0.9991 0.9991 0.9991 0.9991 0.9991 0.9991 0.9991 0.9992 0.9992 0.9992 0.9992 0.9992 0.9993 0.9992 
0.9992 0.9991 0.9991 0.9991 0.9991 0.9991 0.9991 0.9991 0.9991 0.9991 0.9991 0.9991 0.9991 0.9991 0.9992 0.9992 0.9992 0.9992 0.9992 0.9993 0.9992 
0.9992 0.9991 0.9991 0.9991 0.9991 0.9991 0.9991 0.9991 0.9991 0.9991 0.9991 0.9991 0.9991 0.9991 0.9992 0.9992 0.9992 0.9992 0.9992 0.9993 0.9992 
0.9992 0.9991 0.9991 0.9991 0.9991 0.9991 0.9991 0.9991 0.9991 0.9991 0.9991 0.9991 0.9991 0.9991 0.9992 0.9992 0.9992 0.9992 0.9992 0.9993 0.9992 
0.9992 0.9991 0.9991 0.9991 0.9991 0.9991 0.9991 0.9991 0.9991 0.9991 0.9991 0.9991 0.9991 0.9991 0.9992 0.9992 0.9992 0.9992 0.9992 0.9993 0.9992 
0.9992 0.9991 0.9991 0.9991 0.9991 0.9991 0.9991 0.9991 0.9991 0.9991 0.9991 0.9991 0.9991 0.9991 0.9992 0.9992 0.9992 0.9992 0.9992 0.9993 0.9992 
0.9992 0.9991 0.9991 0.9991 0.9991 0.9991 0.9991 0.9991 0.9991 0.9991 0.9991 0.9991 0.9991 0.9991 0.9992 0.9992 0.9992 0.9992 0.9992 0.9993 0.9992 
0.9992 0.9991 0.9991 0.9991 0.9991 0.9991 0.9991 0.9991 0.9991 0.9991 0.9991 0.9991 0.9991 0.9991 0.9992 0.9992 0.9992 0.9992 0.9992 0.9993 0.9992 
</DataArray>
</PointData>
</Piece>
</ImageData>
</VTKFile>
