<VTKFile type="ImageData">
<ImageData Origin="0 -10 0" Spacing="0.5 0.5 1" WholeExtent="0 20 0 40 0 0">
<Piece Extent="0 20 0 40 0 0">
<PointData>
<DataArray Name="f" NumberOfComponents="1" format="ascii" type="Float64">
0.1861 0.187 0.1874 0.1878 0.1881 0.1884 0.1886 0.1887 0.1888 0.1889 0.1889 0.1888 0.1888 0.1887 0.1885 0.1883 0.1881 0.1878 0.1874 0.1871 0.1861 
0.1696 0.1712 0.1721 0.1728 0.1734 0.1739 0.1742 0.1746 0.1747 0.1749 0.1748 0.1748 0.1746 0.1745 0.1741 0.1738 0.1732 0.1728 0.1718 0.1715 0.1696 
0.1455 0.1477 0.1488 0.1499 0.1506 0.1514 0.1517 0.1524 0.1524 0.1528 0.1525 0.1527 0.1522 0.1522 0.1514 0.1513 0.1501 0.1499 0.1482 0.1481 0.1455 
0.1174 0.1198 0.121 0.1224 0.1231 0.1242 0.1244 0.1253 0.1251 0.1259 0.1253 0.1259 0.1248 0.1253 0.1239 0.1242 0.1224 0.1225 0.1202 0.1203 0.1174 
0.08894 0.09135 0.0926 0.09388 0.09467 0.0957 0.09604 0.0969 0.09678 0.09752 0.09691 0.09758 0.09646 0.09708 0.09544 0.09599 0.09386 0.09427 0.0917 0.09187 0.08894 
0.06337 0.06538 0.06658 0.06764 0.06848 0.06923 0.06976 0.07026 0.07048 0.07078 0.07067 0.07082 0.07034 0.07036 0.06946 0.0694 0.06802 0.06791 0.066 0.06585 0.06337 
0.04236 0.04393 0.04495 0.04582 0.04653 0.04711 0.04756 0.04792 0.04814 0.0483 0.0483 0.04829 0.04805 0.04789 0.04737 0.0471 0.04622 0.04589 0.04456 0.04426 0.04236 
0.02648 0.02766 0.02848 0.02916 0.02971 0.03015 0.03048 0.03072 0.03087 0.03095 0.03095 0.03089 0.03073 0.03054 0.03021 0.02992 0.02936 0.029 0.02814 0.02781 0.02648 
0.01542 0.01626 0.01688 0.0174 0.01782 0.01815 0.01838 0.01854 0.01862 0.01865 0.01861 0.01853 0.01839 0.01822 0.01799 0.01774 0.01738 0.01708 0.01655 0.01626 0.01542 
0.008306 0.008867 0.009319 0.009704 0.01002 0.01026 0.01043 0.01054 0.01059 0.01059 0.01054 0.01045 0.01033 0.01018 0.01 0.00981 0.009572 0.009347 0.009022 0.008808 0.008306 
0.004113 0.004449 0.004751 0.005018 0.005244 0.005426 0.00556 0.005646 0.005684 0.00568 0.005638 0.005565 0.005465 0.005347 0.005211 0.005065 0.004902 0.004742 0.004545 0.004397 0.004113 
0.001861 0.002036 0.002215 0.002382 0.002532 0.00266 0.002762 0.002834 0.002874 0.002882 0.00286 0.002812 0.002743 0.002657 0.002559 0.002454 0.002344 0.002235 0.002115 0.002017 0.001861 
0.0007679 0.0008433 0.0009357 0.001027 0.001114 0.001194 0.001263 0.001319 0.001357 0.001376 0.001375 0.001353 0.001314 0.001261 0.001197 0.001128 0.001056 0.0009851 0.0009128 0.0008518 0.0007679 
0.0002894 0.0003148 0.000356 0.0003984 0.0004413 0.0004835 0.0005236 0.0005596 0.0005891 0.0006098 0.0006196 0.0006171 0.0006021 0.0005758 0.0005405 0.0004992 0.0004553 0.0004117 0.0003692 0.000333 0.0002894 
0.0001003 0.0001057 0.0001217 0.0001386 0.0001565 0.0001751 0.000194 0.0002127 0.0002302 0.0002452 0.0002563 0.0002619 0.0002608 0.0002524 0.000237 0.0002161 0.0001919 0.0001669 0.0001428 0.0001222 0.0001003 
3.256e-05 3.196e-05 3.738e-05 4.326e-05 4.963e-05 5.649e-05 6.383e-05 7.157e-05 7.954e-05 8.74e-05 9.46e-05 0.0001004 0.0001037 0.0001038 9.983e-05 9.187e-05 8.065e-05 6.767e-05 5.462e-05 4.33e-05 3.256e-05 
1.025e-05 8.744e-06 1.036e-05 1.216e-05 1.413e-05 1.63e-05 1.868e-05 2.13e-05 2.415e-05 2.722e-05 3.042e-05 3.357e-05 3.635e-05 3.827e-05 3.877e-05 3.73e-05 3.364e-05 2.81e-05 2.162e-05 1.556e-05 1.025e-05 
3.36e-06 2.3e-06 2.718e-06 3.197e-06 3.731e-06 4.326e-06 4.986e-06 5.724e-06 6.55e-06 7.479e-06 8.52e-06 9.668e-06 1.089e-05 1.209e-05 1.307e-05 1.355e-05 1.317e-05 1.166e-05 9.086e-06 6.068e-06 3.36e-06 
1.321e-06 9.183e-07 1.043e-06 1.165e-06 1.287e-06 1.414e-06 1.551e-06 1.705e-06 1.881e-06 2.085e-06 2.325e-06 2.607e-06 2.94e-06 3.325e-06 3.749e-06 4.164e-06 4.456e-06 4.43e-06 3.856e-06 2.681e-06 1.321e-06 
8.955e-07 1.203e-06 1.412e-06 1.533e-06 1.589e-06 1.599e-06 1.578e-06 1.539e-06 1.491e-06 1.443e-06 1.399e-06 1.365e-06 1.346e-06 1.347e-06 1.373e-06 1.427e-06 1.508e-06 1.59e-06 1.595e-06 1.367e-06 8.955e-07 
1.521e-06 2.764e-06 3.433e-06 3.84e-06 4.05e-06 4.108e-06 4.052e-06 3.911e-06 3.71e-06 3.471e-06 3.208e-06 2.933e-06 2.657e-06 2.386e-06 2.127e-06 1.885e-06 1.665e-06 1.471e-06 1.31e-06 1.186e-06 1.521e-06 
4.117e-06 6.938e-06 8.743e-06 9.972e-06 1.073e-05 1.111e-05 1.117e-05 1.098e-05 1.06e-05 1.007e-05 9.44e-06 8.737e-06 7.991e-06 7.222e-06 6.449e-06 5.686e-06 4.946e-06 4.24e-06 3.577e-06 2.965e-06 4.117e-06 
1.18e-05 1.785e-05 2.208e-05 2.523e-05 2.741e-05 2.874e-05 2.931e-05 2.927e-05 2.871e-05 2.773e-05 2.642e-05 2.487e-05 2.313e-05 2.126e-05 1.932e-05 1.734e-05 1.536e-05 1.342e-05 1.153e-05 9.735e-06 1.18e-05 
3.294e-05 4.558e-05 5.47e-05 6.198e-05 6.736e-05 7.1e-05 7.306e-05 7.373e-05 7.318e-05 7.161e-05 6.919e-05 6.606e-05 6.237e-05 5.825e-05 5.38e-05 4.913e-05 4.432e-05 3.947e-05 3.464e-05 2.992e-05 3.294e-05 
8.772e-05 0.0001134 0.0001319 0.0001474 0.0001593 0.000168 0.0001735 0.0001763 0.0001764 0.0001743 0.0001702 0.0001645 0.0001572 0.0001488 0.0001394 0.0001293 0.0001185 0.0001074 9.609e-05 8.472e-05 8.772e-05 
0.0002212 0.0002717 0.0003068 0.0003378 0.0003622 0.0003808 0.0003935 0.000401 0.0004034 0.0004013 0.0003951 0.0003852 0.0003721 0.0003561 0.0003377 0.0003173 0.0002951 0.0002715 0.000247 0.0002218 0.0002212 
0.0005258 0.0006211 0.0006843 0.0007426 0.0007891 0.0008257 0.000852 0.0008689 0.0008767 0.000876 0.0008675 0.0008518 0.0008294 0.0008011 0.0007674 0.0007289 0.0006862 0.0006399 0.0005907 0.0005391 0.0005258 
0.001176 0.001349 0.001456 0.00156 0.001643 0.00171 0.00176 0.001794 0.001812 0.001816 0.001805 0.001782 0.001746 0.001699 0.001641 0.001573 0.001496 0.001411 0.001319 0.001221 0.001176 
0.002476 0.002773 0.002943 0.003122 0.00326 0.003376 0.003463 0.003525 0.003562 0.003575 0.003564 0.003531 0.003477 0.003402 0.003308 0.003195 0.003066 0.00292 0.002759 0.002585 0.002476 
0.004904 0.005393 0.005646 0.005937 0.006153 0.006342 0.006485 0.006591 0.006657 0.006686 0.006678 0.006635 0.006556 0.006444 0.006299 0.006122 0.005916 0.005681 0.005418 0.00513 0.004904 
0.009147 0.009912 0.01026 0.01072 0.01103 0.01133 0.01154 0.01172 0.01182 0.01188 0.01187 0.01182 0.01171 0.01155 0.01134 0.01108 0.01077 0.01041 0.01001 0.009561 0.009147 
0.01608 0.01722 0.01766 0.01835 0.01877 0.01922 0.01952 0.01978 0.01994 0.02003 0.02003 0.01996 0.01982 0.0196 0.0193 0.01894 0.0185 0.01799 0.01741 0.01676 0.01608 
0.02666 0.02827 0.02878 0.0298 0.03029 0.03096 0.03132 0.03171 0.03189 0.03204 0.03203 0.03196 0.03175 0.03148 0.03108 0.0306 0.03001 0.02934 0.02856 0.02769 0.02666 
0.04174 0.0439 0.04439 0.04584 0.04632 0.04729 0.04762 0.04821 0.04833 0.04861 0.0485 0.04849 0.04815 0.04787 0.04732 0.04677 0.04601 0.04521 0.04422 0.04317 0.04174 
0.06174 0.06447 0.06482 0.06678 0.06705 0.06847 0.06853 0.06949 0.06932 0.06987 0.06949 0.06966 0.06909 0.06891 0.06816 0.06766 0.06671 0.06589 0.06471 0.06355 0.06174 
0.08629 0.08944 0.08951 0.09203 0.09182 0.09376 0.09332 0.0947 0.09411 0.09496 0.09428 0.09467 0.09391 0.09389 0.09303 0.09264 0.09162 0.09085 0.08959 0.08841 0.08629 
0.1139 0.1172 0.1169 0.1196 0.1191 0.121 0.1204 0.1217 0.1212 0.1219 0.1214 0.1217 0.1212 0.1211 0.1205 0.1201 0.1192 0.1185 0.1173 0.1161 0.1139 
0.1417 0.1445 0.1444 0.1462 0.1461 0.1472 0.1473 0.1479 0.1479 0.1483 0.1483 0.1483 0.1482 0.1481 0.1477 0.1473 0.1467 0.1459 0.1449 0.1438 0.1417 
0.1662 0.168 0.1681 0.1691 0.1694 0.17 0.1703 0.1707 0.1709 0.1712 0.1713 0.1714 0.1714 0.1713 0.171 0.1707 0.1702 0.1695 0.1687 0.1678 0.1662 
0.1838 0.1847 0.1848 0.1853 0.1856 0.1859 0.1862 0.1865 0.1868 0.1869 0.1871 0.1871 0.1871 0.187 0.1868 0.1866 0.1862 0.1858 0.1854 0.1848 0.1838 
0.1917 0.1915 0.1915 0.1918 0.192 0.1923 0.1925 0.1927 0.1928 0.1929 0.193 0.1931 0.1931 0.193 0.193 0.1929 0.1927 0.1926 0.1924 0.1921 0.1917 
</DataArray>
<DataArray Name="E" NumberOfComponents="1" format="ascii" type="Float64">
1.938 1.908 1.85 1.797 1.748 1.702 1.659 1.618 1.578 1.54 1.502 1.463 1.424 1.384 1.342 1.298 1.251 1.201 1.147 1.088 1.057 
1.938 1.908 1.85 1.797 1.748 1.702 1.659 1.618 1.578 1.54 1.502 1.463 1.424 1.384 1.342 1.298 1.251 1.201 1.147 1.088 1.057 
1.938 1.908 1.85 1.797 1.748 1.702 1.659 1.618 1.578 1.54 1.502 1.463 1.424 1.384 1.342 1.298 1.251 1.201 1.147 1.088 1.057 
1.938 1.908 1.85 1.797 1.748 1.702 1.659 1.618 1.578 1.54 1.502 1.463 1.424 1.384 1.342 1.298 1.251 1.201 1.147 1.088 1.057 
1.938 1.908 1.85 1.797 1.748 1.702 1.659 1.618 1.578 1.54 1.502 1.463 1.424 1.384 1.342 1.298 1.251 1.201 1.147 1.088 1.057 
1.938 1.908 1.85 1.797 1.748 1.702 1.659 1.618 1.578 1.54 1.502 1.463 1.424 1.384 1.342 1.298 1.251 1.201 1.147 1.088 1.057 
1.938 1.908 1.85 1.797 1.748 1.702 1.659 1.618 1.578 1.54 1.502 1.463 1.424 1.384 1.342 1.298 1.251 1.201 1.147 1.088 1.057 
1.938 1.908 1.85 1.797 1.748 1.702 1.659 1.618 1.578 1.54 1.502 1.463 1.424 1.384 1.342 1.298 1.251 1.201 1.147 1.088 1.057 
1.938 1.908 1.85 1.797 1.748 1.702 1.659 1.618 1.578 1.54 1.502 1.463 1.424 1.384 1.342 1.298 1.251 1.201 1.147 1.088 1.057 
1.938 1.908 1.85 1.797 1.748 1.702 1.659 1.618 1.578 1.54 1.502 1.463 1.424 1.384 1.342 1.298 1.251 1.201 1.147 1.088 1.057 
1.938 1.908 1.85 1.797 1.748 1.702 1.659 1.618 1.578 1.54 1.502 1.463 1.424 1.384 1.342 1.298 1.251 1.201 1.147 1.088 1.057 
1.938 1.908 1.85 1.797 1.748 1.702 1.659 1.618 1.578 1.54 1.502 1.463 1.424 1.384 1.342 1.298 1.251 1.201 1.147 1.088 1.057 
1.938 1.908 1.85 1.797 1.748 1.702 1.659 1.618 1.578 1.54 1.502 1.463 1.424 1.384 1.342 1.298 1.251 1.201 1.147 1.088 1.057 
1.938 1.908 1.85 1.797 1.748 1.702 1.659 1.618 1.578 1.54 1.502 1.463 1.424 1.384 1.342 1.298 1.251 1.201 1.147 1.088 1.057 
1.938 1.908 1.85 1.797 1.748 1.702 1.659 1.618 1.578 1.54 1.502 1.463 1.424 1.384 1.342 1.298 1.251 1.201 1.147 1.088 1.057 
1.938 1.908 1.85 1.797 1.748 1.702 1.659 1.618 1.578 1.54 1.502 1.463 1.424 1.384 1.342 1.298 1.251 1.201 1.147 1.088 1.057 
1.938 1.908 1.85 1.797 1.748 1.702 1.659 1.618 1.578 1.54 1.502 1.463 1.424 1.384 1.342 1.298 1.251 1.201 1.147 1.088 1.057 
1.938 1.908 1.85 1.797 1.748 1.702 1.659 1.618 1.578 1.54 1.502 1.463 1.424 1.384 1.342 1.298 1.251 1.201 1.147 1.088 1.057 
1.938 1.908 1.85 1.797 1.748 1.702 1.659 1.618 1.578 1.54 1.502 1.463 1.424 1.384 1.342 1.298 1.251 1.201 1.147 1.088 1.057 
1.938 1.908 1.85 1.797 1.748 1.702 1.659 1.618 1.578 1.54 1.502 1.463 1.424 1.384 1.342 1.298 1.251 1.201 1.147 1.088 1.057 
1.938 1.908 1.85 1.797 1.748 1.702 1.659 1.618 1.578 1.54 1.502 1.463 1.424 1.384 1.342 1.298 1.251 1.201 1.147 1.088 1.057 
1.938 1.908 1.85 1.797 1.748 1.702 1.659 1.618 1.578 1.54 1.502 1.463 1.424 1.384 1.342 1.298 1.251 1.201 1.147 1.088 1.057 
1.938 1.908 1.85 1.797 1.748 1.702 1.659 1.618 1.578 1.54 1.502 1.463 1.424 1.384 1.342 1.298 1.251 1.201 1.147 1.088 1.057 
1.938 1.908 1.85 1.797 1.748 1.702 1.659 1.618 1.578 1.54 1.502 1.463 1.424 1.384 1.342 1.298 1.251 1.201 1.147 1.088 1.057 
1.938 1.908 1.85 1.797 1.748 1.702 1.659 1.618 1.578 1.54 1.502 1.463 1.424 1.384 1.342 1.298 1.251 1.201 1.147 1.088 1.057 
1.938 1.908 1.85 1.797 1.748 1.702 1.659 1.618 1.578 1.54 1.502 1.463 1.424 1.384 1.342 1.298 1.251 1.201 1.147 1.088 1.057 
1.938 1.908 1.85 1.797 1.748 1.702 1.659 1.618 1.578 1.54 1.502 1.463 1.424 1.384 1.342 1.298 1.251 1.201 1.147 1.088 1.057 
1.938 1.908 1.85 1.797 1.748 1.702 1.659 1.618 1.578 1.54 1.502 1.463 1.424 1.384 1.342 1.298 1.251 1.201 1.147 1.088 1.057 
1.938 1.908 1.85 1.797 1.748 1.702 1.659 1.618 1.578 1.54 1.502 1.463 1.424 1.384 1.342 1.298 1.251 1.201 1.147 1.088 1.057 
1.938 1.908 1.85 1.797 1.748 1.702 1.659 1.618 1.578 1.54 1.502 1.463 1.424 1.384 1.342 1.298 1.251 1.201 1.147 1.088 1.057 
1.938 1.908 1.85 1.797 1.748 1.702 1.659 1.618 1.578 1.54 1.502 1.463 1.424 1.384 1.342 1.298 1.251 1.201 1.147 1.088 1.057 
1.938 1.908 1.85 1.797 1.748 1.702 1.659 1.618 1.578 1.54 1.502 1.463 1.424 1.384 1.342 1.298 1.251 1.201 1.147 1.088 1.057 
1.938 1.908 1.85 1.797 1.748 1.702 1.659 1.618 1.578 1.54 1.502 1.463 1.424 1.384 1.342 1.298 1.251 1.201 1.147 1.088 1.057 
1.938 1.908 1.85 1.797 1.748 1.702 1.659 1.618 1.578 1.54 1.502 1.463 1.424 1.384 1.342 1.298 1.251 1.201 1.147 1.088 1.057 
1.938 1.908 1.85 1.797 1.748 1.702 1.659 1.618 1.578 1.54 1.502 1.463 1.424 1.384 1.342 1.298 1.251 1.201 1.147 1.088 1.057 
1.938 1.908 1.85 1.797 1.748 1.702 1.659 1.618 1.578 1.54 1.502 1.463 1.424 1.384 1.342 1.298 1.251 1.201 1.147 1.088 1.057 
1.938 1.908 1.85 1.797 1.748 1.702 1.659 1.618 1.578 1.54 1.502 1.463 1.424 1.384 1.342 1.298 1.251 1.201 1.147 1.088 1.057 
1.938 1.908 1.85 1.797 1.748 1.702 1.659 1.618 1.578 1.54 1.502 1.463 1.424 1.384 1.342 1.298 1.251 1.201 1.147 1.088 1.057 
1.938 1.908 1.85 1.797 1.748 1.702 1.659 1.618 1.578 1.54 1.502 1.463 1.424 1.384 1.342 1.298 1.251 1.201 1.147 1.088 1.057 
1.938 1.908 1.85 1.797 1.748 1.702 1.659 1.618 1.578 1.54 1.502 1.463 1.424 1.384 1.342 1.298 1.251 1.201 1.147 1.088 1.057 
1.938 1.908 1.85 1.797 1.748 1.702 1.659 1.618 1.578 1.54 1.502 1.463 1.424 1.384 1.342 1.298 1.251 1.201 1.147 1.088 1.057 
</DataArray>
<DataArray Name="ne" NumberOfComponents="1" format="ascii" type="Float64">
0.8712 0.8771 0.8914 0.8967 0.9069 0.9104 0.9174 0.9189 0.9232 0.9226 0.9247 0.922 0.922 0.9172 0.9153 0.9082 0.9044 0.8946 0.8892 0.8759 0.8706 
0.8712 0.8771 0.8914 0.8967 0.9069 0.9104 0.9174 0.9189 0.9232 0.9226 0.9247 0.922 0.922 0.9172 0.9153 0.9082 0.9044 0.8946 0.8892 0.8759 0.8706 
0.8712 0.8771 0.8914 0.8967 0.9069 0.9104 0.9174 0.9189 0.9232 0.9226 0.9247 0.922 0.922 0.9172 0.9153 0.9082 0.9044 0.8946 0.8892 0.8759 0.8706 
0.8712 0.8771 0.8914 0.8967 0.9069 0.9104 0.9174 0.9189 0.9232 0.9226 0.9247 0.922 0.922 0.9172 0.9153 0.9082 0.9044 0.8946 0.8892 0.8759 0.8706 
0.8712 0.8771 0.8914 0.8967 0.9069 0.9104 0.9174 0.9189 0.9232 0.9226 0.9247 0.922 0.922 0.9172 0.9153 0.9082 0.9044 0.8946 0.8892 0.8759 0.8706 
0.8712 0.8771 0.8914 0.8967 0.9069 0.9104 0.9174 0.9189 0.9232 0.9226 0.9247 0.922 0.922 0.9172 0.9153 0.9082 0.9044 0.8946 0.8892 0.8759 0.8706 
0.8712 0.8771 0.8914 0.8967 0.9069 0.9104 0.9174 0.9189 0.9232 0.9226 0.9247 0.922 0.922 0.9172 0.9153 0.9082 0.9044 0.8946 0.8892 0.8759 0.8706 
0.8712 0.8771 0.8914 0.8967 0.9069 0.9104 0.9174 0.9189 0.9232 0.9226 0.9247 0.922 0.922 0.9172 0.9153 0.9082 0.9044 0.8946 0.8892 0.8759 0.8706 
0.8712 0.8771 0.8914 0.8967 0.9069 0.9104 0.9174 0.9189 0.9232 0.9226 0.9247 0.922 0.922 0.9172 0.9153 0.9082 0.9044 0.8946 0.8892 0.8759 0.8706 
0.8712 0.8771 0.8914 0.8967 0.9069 0.9104 0.9174 0.9189 0.9232 0.9226 0.9247 0.922 0.922 0.9172 0.9153 0.9082 0.9044 0.8946 0.8892 0.8759 0.8706 
0.8712 0.8771 0.8914 0.8967 0.9069 0.9104 0.9174 0.9189 0.9232 0.9226 0.9247 0.922 0.922 0.9172 0.9153 0.9082 0.9044 0.8946 0.8892 0.8759 0.8706 
0.8712 0.8771 0.8914 0.8967 0.9069 0.9104 0.9174 0.9189 0.9232 0.9226 0.9247 0.922 0.922 0.9172 0.9153 0.9082 0.9044 0.8946 0.8892 0.8759 0.8706 
0.8712 0.8771 0.8914 0.8967 0.9069 0.9104 0.9174 0.9189 0.9232 0.9226 0.9247 0.922 0.922 0.9172 0.9153 0.9082 0.9044 0.8946 0.8892 0.8759 0.8706 
0.8712 0.8771 0.8914 0.8967 0.9069 0.9104 0.9174 0.9189 0.9232 0.9226 0.9247 0.922 0.922 0.9172 0.9153 0.9082 0.9044 0.8946 0.8892 0.8759 0.8706 
0.8712 0.8771 0.8914 0.8967 0.9069 0.9104 0.9174 0.9189 0.9232 0.9226 0.9247 0.922 0.922 0.9172 0.9153 0.9082 0.9044 0.8946 0.8892 0.8759 0.8706 
0.8712 0.8771 0.8914 0.8967 0.9069 0.9104 0.9174 0.9189 0.9232 0.9226 0.9247 0.922 0.922 0.9172 0.9153 0.9082 0.9044 0.8946 0.8892 0.8759 0.8706 
0.8712 0.8771 0.8914 0.8967 0.9069 0.9104 0.9174 0.9189 0.9232 0.9226 0.9247 0.922 0.922 0.9172 0.9153 0.9082 0.9044 0.8946 0.8892 0.8759 0.8706 
0.8712 0.8771 0.8914 0.8967 0.9069 0.9104 0.9174 0.9189 0.9232 0.9226 0.9247 0.922 0.922 0.9172 0.9153 0.9082 0.9044 0.8946 0.8892 0.8759 0.8706 
0.8712 0.8771 0.8914 0.8967 0.9069 0.9104 0.9174 0.9189 0.9232 0.9226 0.9247 0.922 0.922 0.9172 0.9153 0.9082 0.9044 0.8946 0.8892 0.8759 0.8706 
0.8712 0.8771 0.8914 0.8967 0.9069 0.9104 0.9174 0.9189 0.9232 0.9226 0.9247 0.922 0.922 0.9172 0.9153 0.9082 0.9044 0.8946 0.8892 0.8759 0.8706 
0.8712 0.8771 0.8914 0.8967 0.9069 0.9104 0.9174 0.9189 0.9232 0.9226 0.9247 0.922 0.922 0.9172 0.9153 0.9082 0.9044 0.8946 0.8892 0.8759 0.8706 
0.8712 0.8771 0.8914 0.8967 0.9069 0.9104 0.9174 0.9189 0.9232 0.9226 0.9247 0.922 0.922 0.9172 0.9153 0.9082 0.9044 0.8946 0.8892 0.8759 0.8706 
0.8712 0.8771 0.8914 0.8967 0.9069 0.9104 0.9174 0.9189 0.9232 0.9226 0.9247 0.922 0.922 0.9172 0.9153 0.9082 0.9044 0.8946 0.8892 0.8759 0.8706 
0.8712 0.8771 0.8914 0.8967 0.9069 0.9104 0.9174 0.9189 0.9232 0.9226 0.9247 0.922 0.922 0.9172 0.9153 0.9082 0.9044 0.8946 0.8892 0.8759 0.8706 
0.8712 0.8771 0.8914 0.8967 0.9069 0.9104 0.9174 0.9189 0.9232 0.9226 0.9247 0.922 0.922 0.9172 0.9153 0.9082 0.9044 0.8946 0.8892 0.8759 0.8706 
0.8712 0.8771 0.8914 0.8967 0.9069 0.9104 0.9174 0.9189 0.9232 0.9226 0.9247 0.922 0.922 0.9172 0.9153 0.9082 0.9044 0.8946 0.8892 0.8759 0.8706 
0.8712 0.8771 0.8914 0.8967 0.9069 0.9104 0.9174 0.9189 0.9232 0.9226 0.9247 0.922 0.922 0.9172 0.9153 0.9082 0.9044 0.8946 0.8892 0.8759 0.8706 
0.8712 0.8771 0.8914 0.8967 0.9069 0.9104 0.9174 0.9189 0.9232 0.9226 0.9247 0.922 0.922 0.9172 0.9153 0.9082 0.9044 0.8946 0.8892 0.8759 0.8706 
0.8712 0.8771 0.8914 0.8967 0.9069 0.9104 0.9174 0.9189 0.9232 0.9226 0.9247 0.922 0.922 0.9172 0.9153 0.9082 0.9044 0.8946 0.8892 0.8759 0.8706 
0.8712 0.8771 0.8914 0.8967 0.9069 0.9104 0.9174 0.9189 0.9232 0.9226 0.9247 0.922 0.922 0.9172 0.9153 0.9082 0.9044 0.8946 0.8892 0.8759 0.8706 
0.8712 0.8771 0.8914 0.8967 0.9069 0.9104 0.9174 0.9189 0.9232 0.9226 0.9247 0.922 0.922 0.9172 0.9153 0.9082 0.9044 0.8946 0.8892 0.8759 0.8706 
0.8712 0.8771 0.8914 0.8967 0.9069 0.9104 0.9174 0.9189 0.9232 0.9226 0.9247 0.922 0.922 0.9172 0.9153 0.9082 0.9044 0.8946 0.8892 0.8759 0.8706 
0.8712 0.8771 0.8914 0.8967 0.9069 0.9104 0.9174 0.9189 0.9232 0.9226 0.9247 0.922 0.922 0.9172 0.9153 0.9082 0.9044 0.8946 0.8892 0.8759 0.8706 
0.8712 0.8771 0.8914 0.8967 0.9069 0.9104 0.9174 0.9189 0.9232 0.9226 0.9247 0.922 0.922 0.9172 0.9153 0.9082 0.9044 0.8946 0.8892 0.8759 0.8706 
0.8712 0.8771 0.8914 0.8967 0.9069 0.9104 0.9174 0.9189 0.9232 0.9226 0.9247 0.922 0.922 0.9172 0.9153 0.9082 0.9044 0.8946 0.8892 0.8759 0.8706 
0.8712 0.8771 0.8914 0.8967 0.9069 0.9104 0.9174 0.9189 0.9232 0.9226 0.9247 0.922 0.922 0.9172 0.9153 0.9082 0.9044 0.8946 0.8892 0.8759 0.8706 
0.8712 0.8771 0.8914 0.8967 0.9069 0.9104 0.9174 0.9189 0.9232 0.9226 0.9247 0.922 0.922 0.9172 0.9153 0.9082 0.9044 0.8946 0.8892 0.8759 0.8706 
0.8712 0.8771 0.8914 0.8967 0.9069 0.9104 0.9174 0.9189 0.9232 0.9226 0.9247 0.922 0.922 0.9172 0.9153 0.9082 0.9044 0.8946 0.8892 0.8759 0.8706 
0.8712 0.8771 0.8914 0.8967 0.9069 0.9104 0.9174 0.9189 0.9232 0.9226 0.9247 0.922 0.922 0.9172 0.9153 0.9082 0.9044 0.8946 0.8892 0.8759 0.8706 
0.8712 0.8771 0.8914 0.8967 0.9069 0.9104 0.9174 0.9189 0.9232 0.9226 0.9247 0.922 0.922 0.9172 0.9153 0.9082 0.9044 0.8946 0.8892 0.8759 0.8706 
0.8712 0.8771 0.8914 0.8967 0.9069 0.9104 0.9174 0.9189 0.9232 0.9226 0.9247 0.922 0.922 0.9172 0.9153 0.9082 0.9044 0.8946 0.8892 0.8759 0.8706 
</DataArray>
</PointData>
</Piece>
</ImageData>
</VTKFile>
