<VTKFile type="ImageData">
<ImageData Origin="0 -10 0" Spacing="0.5 0.5 1" WholeExtent="0 20 0 40 0 0">
<Piece Extent="0 20 0 40 0 0">
<PointData>
<DataArray Name="f" NumberOfComponents="1" format="ascii" type="Float64">
4.056e-12 6.686e-14 1.974e-18 0 0 0 0 0 0 0 0 0 0 0 0 0 0 0 0 0 0 
1.472e-09 3.142e-11 1.38e-14 1.219e-16 0 0 0 0 0 0 0 0 0 0 0 0 0 0 0 0 0 
3.731e-08 1.598e-09 1.081e-11 2.399e-13 1.062e-17 4.258e-20 0 0 0 0 0 0 0 0 0 0 0 0 0 0 0 
5.662e-07 6.117e-08 3.381e-09 9.678e-11 6.377e-14 1.13e-15 1.142e-17 5.235e-20 0 0 0 0 0 0 0 0 0 0 0 0 0 
3.386e-06 6.538e-07 7.169e-08 4.147e-09 4.336e-11 1.931e-12 5.999e-14 1.215e-15 1.433e-17 7.883e-20 0 0 0 0 0 0 0 0 0 0 0 
1.124e-05 3.791e-06 8.003e-07 1.026e-07 6.588e-09 3.248e-10 1.918e-11 7.99e-13 2.204e-14 3.616e-16 2.87e-18 0 0 0 0 0 0 0 0 0 0 
2.165e-05 1.159e-05 4.048e-06 9.024e-07 1.173e-07 1.101e-08 9.885e-10 6.272e-11 2.642e-12 6.641e-14 8.115e-16 2.94e-18 0 0 0 0 0 0 0 0 0 
2.657e-05 2.173e-05 1.187e-05 4.269e-06 9.628e-07 1.538e-07 2.013e-08 1.858e-09 1.14e-10 4.203e-12 7.656e-14 4.355e-16 1.372e-19 0 0 0 0 0 0 0 0 
2.15e-05 2.639e-05 2.197e-05 1.225e-05 4.455e-06 1.126e-06 2.119e-07 2.804e-08 2.472e-09 1.319e-10 3.553e-12 3.168e-14 1.991e-17 0 0 0 0 0 0 0 0 
1.154e-05 2.116e-05 2.651e-05 2.243e-05 1.263e-05 4.849e-06 1.313e-06 2.486e-07 3.137e-08 2.418e-09 9.626e-11 1.347e-12 1.685e-15 0 0 0 0 0 0 0 0 
4.04e-06 1.113e-05 2.097e-05 2.67e-05 2.284e-05 1.311e-05 5.143e-06 1.398e-06 2.535e-07 2.832e-08 1.673e-09 3.69e-11 9.148e-14 0 0 0 0 0 0 0 0 
8.898e-07 3.751e-06 1.074e-05 2.068e-05 2.681e-05 2.301e-05 1.324e-05 5.222e-06 1.37e-06 2.235e-07 1.972e-08 6.899e-10 3.381e-12 0 0 0 0 0 0 0 0 
1.158e-07 7.732e-07 3.446e-06 1.024e-05 2.038e-05 2.653e-05 2.283e-05 1.324e-05 5.089e-06 1.225e-06 1.632e-07 9.136e-09 8.82e-11 0 0 0 0 0 0 0 0 
8.072e-09 9.069e-08 6.569e-07 3.126e-06 9.818e-06 1.998e-05 2.637e-05 2.291e-05 1.311e-05 4.726e-06 9.65e-07 8.749e-08 1.661e-09 0 0 0 0 0 0 0 0 
2.555e-10 5.406e-09 6.801e-08 5.544e-07 2.872e-06 9.591e-06 2.008e-05 2.675e-05 2.326e-05 1.281e-05 4.086e-06 6.107e-07 2.283e-08 0 0 0 0 0 0 0 0 
2.667e-12 1.368e-10 3.286e-09 5.185e-08 4.724e-07 2.805e-06 9.721e-06 2.046e-05 2.774e-05 2.394e-05 1.223e-05 3.089e-06 2.291e-07 1.292e-18 0 0 0 0 0 0 0 
3.52e-15 1.08e-12 5.473e-11 2.188e-09 3.82e-08 4.642e-07 2.812e-06 9.685e-06 2.114e-05 2.954e-05 2.503e-05 1.106e-05 1.66e-06 7.536e-15 0 0 0 0 0 0 0 
2.684e-20 1.133e-15 1.244e-13 3.16e-11 1.153e-09 3.857e-08 4.358e-07 2.564e-06 9.383e-06 2.216e-05 3.267e-05 2.664e-05 8.468e-06 2.818e-11 5.578e-17 0 0 0 0 0 0 
0 0 1.932e-18 6.818e-14 5.512e-12 1.296e-09 2.913e-08 3.093e-07 2.013e-06 8.556e-06 2.354e-05 3.856e-05 2.887e-05 6.03e-08 2.284e-12 5.017e-17 0 0 0 0 0 
0 0 0 0 2.79e-16 8.783e-12 4.277e-10 9.417e-09 1.258e-07 1.106e-06 6.492e-06 2.47e-05 5.55e-05 5.622e-05 2.289e-08 1.055e-12 4.601e-18 0 0 0 0 
0 0 0 0 0 0 0 0 0 0 1.457e-17 5.254e-12 2.77e-07 0.003581 4.938e-05 6.738e-09 6.244e-14 2.261e-20 0 0 0 
0 0 0 0 0 0 0 0 0 0 0 1.749e-16 1.22e-11 2.033e-07 5.447e-05 2.574e-05 6.839e-06 1.177e-06 1.348e-07 1.015e-08 5.512e-10 
0 0 0 0 0 0 0 0 0 0 0 0 2.033e-16 4.405e-12 2.707e-05 3.851e-05 2.413e-05 8.896e-06 2.112e-06 3.269e-07 3.602e-08 
0 0 0 0 0 0 0 0 0 0 0 0 0 3.109e-17 8.04e-06 2.64e-05 3.313e-05 2.281e-05 9.754e-06 2.686e-06 5.178e-07 
0 0 0 0 0 0 0 0 0 0 0 0 0 0 1.59e-06 1.097e-05 2.53e-05 3.025e-05 2.186e-05 1.009e-05 3.22e-06 
0 0 0 0 0 0 0 0 0 0 0 0 0 0 2.206e-07 3.068e-06 1.236e-05 2.447e-05 2.86e-05 2.125e-05 1.078e-05 
0 0 0 0 0 0 0 0 0 0 0 0 0 0 2.207e-08 6.08e-07 4.129e-06 1.309e-05 2.394e-05 2.772e-05 2.167e-05 
0 0 0 0 0 0 0 0 0 0 0 0 0 0 1.61e-09 8.73e-08 9.763e-07 4.827e-06 1.348e-05 2.371e-05 2.78e-05 
0 0 0 0 0 0 0 0 0 0 0 0 0 0 8.564e-11 9.133e-09 1.653e-07 1.251e-06 5.234e-06 1.369e-05 2.356e-05 
0 0 0 0 0 0 0 0 0 0 0 0 0 0 3.285e-12 6.906e-10 1.999e-08 2.284e-07 1.409e-06 5.398e-06 1.34e-05 
0 0 0 0 0 0 0 0 0 0 0 0 0 0 8.887e-14 3.697e-11 1.697e-09 2.895e-08 2.607e-07 1.445e-06 5.113e-06 
0 0 0 0 0 0 0 0 0 0 0 0 0 0 1.635e-15 1.351e-12 9.767e-11 2.472e-09 3.225e-08 2.567e-07 1.285e-06 
0 0 0 0 0 0 0 0 0 0 0 0 0 0 1.929e-17 3.175e-14 3.605e-12 1.348e-10 2.54e-09 2.894e-08 2.045e-07 
0 0 0 0 0 0 0 0 0 0 0 0 0 0 1.326e-19 4.362e-16 7.762e-14 4.291e-12 1.17e-10 1.915e-09 1.921e-08 
0 0 0 0 0 0 0 0 0 0 0 0 0 0 0 2.941e-18 8.217e-16 6.772e-14 2.708e-12 6.454e-11 9.39e-10 
0 0 0 0 0 0 0 0 0 0 0 0 0 0 0 0 2.9e-18 3.679e-16 2.253e-14 8.2e-13 1.836e-11 
0 0 0 0 0 0 0 0 0 0 0 0 0 0 0 0 0 7.948e-20 1.455e-17 1.24e-15 6.143e-14 
0 0 0 0 0 0 0 0 0 0 0 0 0 0 0 0 0 0 0 5.264e-20 1.157e-17 
0 0 0 0 0 0 0 0 0 0 0 0 0 0 0 0 0 0 0 0 0 
0 0 0 0 0 0 0 0 0 0 0 0 0 0 0 0 0 0 0 0 0 
0 0 0 0 0 0 0 0 0 0 0 0 0 0 0 0 0 0 0 0 0 
</DataArray>
<DataArray Name="E" NumberOfComponents="1" format="ascii" type="Float64">
6.249 5.999 5.499 4.999 4.5 4 3.5 3 2.5 2 1.5 0.9997 0.4997 0.0002102 -0.4993 -0.9993 -1.499 -1.999 -2.499 -2.999 -3.249 
6.249 5.999 5.499 4.999 4.5 4 3.5 3 2.5 2 1.5 0.9997 0.4997 0.0002102 -0.4993 -0.9993 -1.499 -1.999 -2.499 -2.999 -3.249 
6.249 5.999 5.499 4.999 4.5 4 3.5 3 2.5 2 1.5 0.9997 0.4997 0.0002102 -0.4993 -0.9993 -1.499 -1.999 -2.499 -2.999 -3.249 
6.249 5.999 5.499 4.999 4.5 4 3.5 3 2.5 2 1.5 0.9997 0.4997 0.0002102 -0.4993 -0.9993 -1.499 -1.999 -2.499 -2.999 -3.249 
6.249 5.999 5.499 4.999 4.5 4 3.5 3 2.5 2 1.5 0.9997 0.4997 0.0002102 -0.4993 -0.9993 -1.499 -1.999 -2.499 -2.999 -3.249 
6.249 5.999 5.499 4.999 4.5 4 3.5 3 2.5 2 1.5 0.9997 0.4997 0.0002102 -0.4993 -0.9993 -1.499 -1.999 -2.499 -2.999 -3.249 
6.249 5.999 5.499 4.999 4.5 4 3.5 3 2.5 2 1.5 0.9997 0.4997 0.0002102 -0.4993 -0.9993 -1.499 -1.999 -2.499 -2.999 -3.249 
6.249 5.999 5.499 4.999 4.5 4 3.5 3 2.5 2 1.5 0.9997 0.4997 0.0002102 -0.4993 -0.9993 -1.499 -1.999 -2.499 -2.999 -3.249 
6.249 5.999 5.499 4.999 4.5 4 3.5 3 2.5 2 1.5 0.9997 0.4997 0.0002102 -0.4993 -0.9993 -1.499 -1.999 -2.499 -2.999 -3.249 
6.249 5.999 5.499 4.999 4.5 4 3.5 3 2.5 2 1.5 0.9997 0.4997 0.0002102 -0.4993 -0.9993 -1.499 -1.999 -2.499 -2.999 -3.249 
6.249 5.999 5.499 4.999 4.5 4 3.5 3 2.5 2 1.5 0.9997 0.4997 0.0002102 -0.4993 -0.9993 -1.499 -1.999 -2.499 -2.999 -3.249 
6.249 5.999 5.499 4.999 4.5 4 3.5 3 2.5 2 1.5 0.9997 0.4997 0.0002102 -0.4993 -0.9993 -1.499 -1.999 -2.499 -2.999 -3.249 
6.249 5.999 5.499 4.999 4.5 4 3.5 3 2.5 2 1.5 0.9997 0.4997 0.0002102 -0.4993 -0.9993 -1.499 -1.999 -2.499 -2.999 -3.249 
6.249 5.999 5.499 4.999 4.5 4 3.5 3 2.5 2 1.5 0.9997 0.4997 0.0002102 -0.4993 -0.9993 -1.499 -1.999 -2.499 -2.999 -3.249 
6.249 5.999 5.499 4.999 4.5 4 3.5 3 2.5 2 1.5 0.9997 0.4997 0.0002102 -0.4993 -0.9993 -1.499 -1.999 -2.499 -2.999 -3.249 
6.249 5.999 5.499 4.999 4.5 4 3.5 3 2.5 2 1.5 0.9997 0.4997 0.0002102 -0.4993 -0.9993 -1.499 -1.999 -2.499 -2.999 -3.249 
6.249 5.999 5.499 4.999 4.5 4 3.5 3 2.5 2 1.5 0.9997 0.4997 0.0002102 -0.4993 -0.9993 -1.499 -1.999 -2.499 -2.999 -3.249 
6.249 5.999 5.499 4.999 4.5 4 3.5 3 2.5 2 1.5 0.9997 0.4997 0.0002102 -0.4993 -0.9993 -1.499 -1.999 -2.499 -2.999 -3.249 
6.249 5.999 5.499 4.999 4.5 4 3.5 3 2.5 2 1.5 0.9997 0.4997 0.0002102 -0.4993 -0.9993 -1.499 -1.999 -2.499 -2.999 -3.249 
6.249 5.999 5.499 4.999 4.5 4 3.5 3 2.5 2 1.5 0.9997 0.4997 0.0002102 -0.4993 -0.9993 -1.499 -1.999 -2.499 -2.999 -3.249 
6.249 5.999 5.499 4.999 4.5 4 3.5 3 2.5 2 1.5 0.9997 0.4997 0.0002102 -0.4993 -0.9993 -1.499 -1.999 -2.499 -2.999 -3.249 
6.249 5.999 5.499 4.999 4.5 4 3.5 3 2.5 2 1.5 0.9997 0.4997 0.0002102 -0.4993 -0.9993 -1.499 -1.999 -2.499 -2.999 -3.249 
6.249 5.999 5.499 4.999 4.5 4 3.5 3 2.5 2 1.5 0.9997 0.4997 0.0002102 -0.4993 -0.9993 -1.499 -1.999 -2.499 -2.999 -3.249 
6.249 5.999 5.499 4.999 4.5 4 3.5 3 2.5 2 1.5 0.9997 0.4997 0.0002102 -0.4993 -0.9993 -1.499 -1.999 -2.499 -2.999 -3.249 
6.249 5.999 5.499 4.999 4.5 4 3.5 3 2.5 2 1.5 0.9997 0.4997 0.0002102 -0.4993 -0.9993 -1.499 -1.999 -2.499 -2.999 -3.249 
6.249 5.999 5.499 4.999 4.5 4 3.5 3 2.5 2 1.5 0.9997 0.4997 0.0002102 -0.4993 -0.9993 -1.499 -1.999 -2.499 -2.999 -3.249 
6.249 5.999 5.499 4.999 4.5 4 3.5 3 2.5 2 1.5 0.9997 0.4997 0.0002102 -0.4993 -0.9993 -1.499 -1.999 -2.499 -2.999 -3.249 
6.249 5.999 5.499 4.999 4.5 4 3.5 3 2.5 2 1.5 0.9997 0.4997 0.0002102 -0.4993 -0.9993 -1.499 -1.999 -2.499 -2.999 -3.249 
6.249 5.999 5.499 4.999 4.5 4 3.5 3 2.5 2 1.5 0.9997 0.4997 0.0002102 -0.4993 -0.9993 -1.499 -1.999 -2.499 -2.999 -3.249 
6.249 5.999 5.499 4.999 4.5 4 3.5 3 2.5 2 1.5 0.9997 0.4997 0.0002102 -0.4993 -0.9993 -1.499 -1.999 -2.499 -2.999 -3.249 
6.249 5.999 5.499 4.999 4.5 4 3.5 3 2.5 2 1.5 0.9997 0.4997 0.0002102 -0.4993 -0.9993 -1.499 -1.999 -2.499 -2.999 -3.249 
6.249 5.999 5.499 4.999 4.5 4 3.5 3 2.5 2 1.5 0.9997 0.4997 0.0002102 -0.4993 -0.9993 -1.499 -1.999 -2.499 -2.999 -3.249 
6.249 5.999 5.499 4.999 4.5 4 3.5 3 2.5 2 1.5 0.9997 0.4997 0.0002102 -0.4993 -0.9993 -1.499 -1.999 -2.499 -2.999 -3.249 
6.249 5.999 5.499 4.999 4.5 4 3.5 3 2.5 2 1.5 0.9997 0.4997 0.0002102 -0.4993 -0.9993 -1.499 -1.999 -2.499 -2.999 -3.249 
6.249 5.999 5.499 4.999 4.5 4 3.5 3 2.5 2 1.5 0.9997 0.4997 0.0002102 -0.4993 -0.9993 -1.499 -1.999 -2.499 -2.999 -3.249 
6.249 5.999 5.499 4.999 4.5 4 3.5 3 2.5 2 1.5 0.9997 0.4997 0.0002102 -0.4993 -0.9993 -1.499 -1.999 -2.499 -2.999 -3.249 
6.249 5.999 5.499 4.999 4.5 4 3.5 3 2.5 2 1.5 0.9997 0.4997 0.0002102 -0.4993 -0.9993 -1.499 -1.999 -2.499 -2.999 -3.249 
6.249 5.999 5.499 4.999 4.5 4 3.5 3 2.5 2 1.5 0.9997 0.4997 0.0002102 -0.4993 -0.9993 -1.499 -1.999 -2.499 -2.999 -3.249 
6.249 5.999 5.499 4.999 4.5 4 3.5 3 2.5 2 1.5 0.9997 0.4997 0.0002102 -0.4993 -0.9993 -1.499 -1.999 -2.499 -2.999 -3.249 
6.249 5.999 5.499 4.999 4.5 4 3.5 3 2.5 2 1.5 0.9997 0.4997 0.0002102 -0.4993 -0.9993 -1.499 -1.999 -2.499 -2.999 -3.249 
6.249 5.999 5.499 4.999 4.5 4 3.5 3 2.5 2 1.5 0.9997 0.4997 0.0002102 -0.4993 -0.9993 -1.499 -1.999 -2.499 -2.999 -3.249 
</DataArray>
<DataArray Name="ne" NumberOfComponents="1" format="ascii" type="Float64">
5.396e-05 5.391e-05 5.399e-05 5.403e-05 5.413e-05 5.425e-05 5.455e-05 5.488e-05 5.525e-05 5.569e-05 5.617e-05 5.595e-05 5.073e-05 0.001821 7.54e-05 5.638e-05 5.729e-05 5.725e-05 5.713e-05 5.7e-05 5.743e-05 
5.396e-05 5.391e-05 5.399e-05 5.403e-05 5.413e-05 5.425e-05 5.455e-05 5.488e-05 5.525e-05 5.569e-05 5.617e-05 5.595e-05 5.073e-05 0.001821 7.54e-05 5.638e-05 5.729e-05 5.725e-05 5.713e-05 5.7e-05 5.743e-05 
5.396e-05 5.391e-05 5.399e-05 5.403e-05 5.413e-05 5.425e-05 5.455e-05 5.488e-05 5.525e-05 5.569e-05 5.617e-05 5.595e-05 5.073e-05 0.001821 7.54e-05 5.638e-05 5.729e-05 5.725e-05 5.713e-05 5.7e-05 5.743e-05 
5.396e-05 5.391e-05 5.399e-05 5.403e-05 5.413e-05 5.425e-05 5.455e-05 5.488e-05 5.525e-05 5.569e-05 5.617e-05 5.595e-05 5.073e-05 0.001821 7.54e-05 5.638e-05 5.729e-05 5.725e-05 5.713e-05 5.7e-05 5.743e-05 
5.396e-05 5.391e-05 5.399e-05 5.403e-05 5.413e-05 5.425e-05 5.455e-05 5.488e-05 5.525e-05 5.569e-05 5.617e-05 5.595e-05 5.073e-05 0.001821 7.54e-05 5.638e-05 5.729e-05 5.725e-05 5.713e-05 5.7e-05 5.743e-05 
5.396e-05 5.391e-05 5.399e-05 5.403e-05 5.413e-05 5.425e-05 5.455e-05 5.488e-05 5.525e-05 5.569e-05 5.617e-05 5.595e-05 5.073e-05 0.001821 7.54e-05 5.638e-05 5.729e-05 5.725e-05 5.713e-05 5.7e-05 5.743e-05 
5.396e-05 5.391e-05 5.399e-05 5.403e-05 5.413e-05 5.425e-05 5.455e-05 5.488e-05 5.525e-05 5.569e-05 5.617e-05 5.595e-05 5.073e-05 0.001821 7.54e-05 5.638e-05 5.729e-05 5.725e-05 5.713e-05 5.7e-05 5.743e-05 
5.396e-05 5.391e-05 5.399e-05 5.403e-05 5.413e-05 5.425e-05 5.455e-05 5.488e-05 5.525e-05 5.569e-05 5.617e-05 5.595e-05 5.073e-05 0.001821 7.54e-05 5.638e-05 5.729e-05 5.725e-05 5.713e-05 5.7e-05 5.743e-05 
5.396e-05 5.391e-05 5.399e-05 5.403e-05 5.413e-05 5.425e-05 5.455e-05 5.488e-05 5.525e-05 5.569e-05 5.617e-05 5.595e-05 5.073e-05 0.001821 7.54e-05 5.638e-05 5.729e-05 5.725e-05 5.713e-05 5.7e-05 5.743e-05 
5.396e-05 5.391e-05 5.399e-05 5.403e-05 5.413e-05 5.425e-05 5.455e-05 5.488e-05 5.525e-05 5.569e-05 5.617e-05 5.595e-05 5.073e-05 0.001821 7.54e-05 5.638e-05 5.729e-05 5.725e-05 5.713e-05 5.7e-05 5.743e-05 
5.396e-05 5.391e-05 5.399e-05 5.403e-05 5.413e-05 5.425e-05 5.455e-05 5.488e-05 5.525e-05 5.569e-05 5.617e-05 5.595e-05 5.073e-05 0.001821 7.54e-05 5.638e-05 5.729e-05 5.725e-05 5.713e-05 5.7e-05 5.743e-05 
5.396e-05 5.391e-05 5.399e-05 5.403e-05 5.413e-05 5.425e-05 5.455e-05 5.488e-05 5.525e-05 5.569e-05 5.617e-05 5.595e-05 5.073e-05 0.001821 7.54e-05 5.638e-05 5.729e-05 5.725e-05 5.713e-05 5.7e-05 5.743e-05 
5.396e-05 5.391e-05 5.399e-05 5.403e-05 5.413e-05 5.425e-05 5.455e-05 5.488e-05 5.525e-05 5.569e-05 5.617e-05 5.595e-05 5.073e-05 0.001821 7.54e-05 5.638e-05 5.729e-05 5.725e-05 5.713e-05 5.7e-05 5.743e-05 
5.396e-05 5.391e-05 5.399e-05 5.403e-05 5.413e-05 5.425e-05 5.455e-05 5.488e-05 5.525e-05 5.569e-05 5.617e-05 5.595e-05 5.073e-05 0.001821 7.54e-05 5.638e-05 5.729e-05 5.725e-05 5.713e-05 5.7e-05 5.743e-05 
5.396e-05 5.391e-05 5.399e-05 5.403e-05 5.413e-05 5.425e-05 5.455e-05 5.488e-05 5.525e-05 5.569e-05 5.617e-05 5.595e-05 5.073e-05 0.001821 7.54e-05 5.638e-05 5.729e-05 5.725e-05 5.713e-05 5.7e-05 5.743e-05 
5.396e-05 5.391e-05 5.399e-05 5.403e-05 5.413e-05 5.425e-05 5.455e-05 5.488e-05 5.525e-05 5.569e-05 5.617e-05 5.595e-05 5.073e-05 0.001821 7.54e-05 5.638e-05 5.729e-05 5.725e-05 5.713e-05 5.7e-05 5.743e-05 
5.396e-05 5.391e-05 5.399e-05 5.403e-05 5.413e-05 5.425e-05 5.455e-05 5.488e-05 5.525e-05 5.569e-05 5.617e-05 5.595e-05 5.073e-05 0.001821 7.54e-05 5.638e-05 5.729e-05 5.725e-05 5.713e-05 5.7e-05 5.743e-05 
5.396e-05 5.391e-05 5.399e-05 5.403e-05 5.413e-05 5.425e-05 5.455e-05 5.488e-05 5.525e-05 5.569e-05 5.617e-05 5.595e-05 5.073e-05 0.001821 7.54e-05 5.638e-05 5.729e-05 5.725e-05 5.713e-05 5.7e-05 5.743e-05 
5.396e-05 5.391e-05 5.399e-05 5.403e-05 5.413e-05 5.425e-05 5.455e-05 5.488e-05 5.525e-05 5.569e-05 5.617e-05 5.595e-05 5.073e-05 0.001821 7.54e-05 5.638e-05 5.729e-05 5.725e-05 5.713e-05 5.7e-05 5.743e-05 
5.396e-05 5.391e-05 5.399e-05 5.403e-05 5.413e-05 5.425e-05 5.455e-05 5.488e-05 5.525e-05 5.569e-05 5.617e-05 5.595e-05 5.073e-05 0.001821 7.54e-05 5.638e-05 5.729e-05 5.725e-05 5.713e-05 5.7e-05 5.743e-05 
5.396e-05 5.391e-05 5.399e-05 5.403e-05 5.413e-05 5.425e-05 5.455e-05 5.488e-05 5.525e-05 5.569e-05 5.617e-05 5.595e-05 5.073e-05 0.001821 7.54e-05 5.638e-05 5.729e-05 5.725e-05 5.713e-05 5.7e-05 5.743e-05 
5.396e-05 5.391e-05 5.399e-05 5.403e-05 5.413e-05 5.425e-05 5.455e-05 5.488e-05 5.525e-05 5.569e-05 5.617e-05 5.595e-05 5.073e-05 0.001821 7.54e-05 5.638e-05 5.729e-05 5.725e-05 5.713e-05 5.7e-05 5.743e-05 
5.396e-05 5.391e-05 5.399e-05 5.403e-05 5.413e-05 5.425e-05 5.455e-05 5.488e-05 5.525e-05 5.569e-05 5.617e-05 5.595e-05 5.073e-05 0.001821 7.54e-05 5.638e-05 5.729e-05 5.725e-05 5.713e-05 5.7e-05 5.743e-05 
5.396e-05 5.391e-05 5.399e-05 5.403e-05 5.413e-05 5.425e-05 5.455e-05 5.488e-05 5.525e-05 5.569e-05 5.617e-05 5.595e-05 5.073e-05 0.001821 7.54e-05 5.638e-05 5.729e-05 5.725e-05 5.713e-05 5.7e-05 5.743e-05 
5.396e-05 5.391e-05 5.399e-05 5.403e-05 5.413e-05 5.425e-05 5.455e-05 5.488e-05 5.525e-05 5.569e-05 5.617e-05 5.595e-05 5.073e-05 0.001821 7.54e-05 5.638e-05 5.729e-05 5.725e-05 5.713e-05 5.7e-05 5.743e-05 
5.396e-05 5.391e-05 5.399e-05 5.403e-05 5.413e-05 5.425e-05 5.455e-05 5.488e-05 5.525e-05 5.569e-05 5.617e-05 5.595e-05 5.073e-05 0.001821 7.54e-05 5.638e-05 5.729e-05 5.725e-05 5.713e-05 5.7e-05 5.743e-05 
5.396e-05 5.391e-05 5.399e-05 5.403e-05 5.413e-05 5.425e-05 5.455e-05 5.488e-05 5.525e-05 5.569e-05 5.617e-05 5.595e-05 5.073e-05 0.001821 7.54e-05 5.638e-05 5.729e-05 5.725e-05 5.713e-05 5.7e-05 5.743e-05 
5.396e-05 5.391e-05 5.399e-05 5.403e-05 5.413e-05 5.425e-05 5.455e-05 5.488e-05 5.525e-05 5.569e-05 5.617e-05 5.595e-05 5.073e-05 0.001821 7.54e-05 5.638e-05 5.729e-05 5.725e-05 5.713e-05 5.7e-05 5.743e-05 
5.396e-05 5.391e-05 5.399e-05 5.403e-05 5.413e-05 5.425e-05 5.455e-05 5.488e-05 5.525e-05 5.569e-05 5.617e-05 5.595e-05 5.073e-05 0.001821 7.54e-05 5.638e-05 5.729e-05 5.725e-05 5.713e-05 5.7e-05 5.743e-05 
5.396e-05 5.391e-05 5.399e-05 5.403e-05 5.413e-05 5.425e-05 5.455e-05 5.488e-05 5.525e-05 5.569e-05 5.617e-05 5.595e-05 5.073e-05 0.001821 7.54e-05 5.638e-05 5.729e-05 5.725e-05 5.713e-05 5.7e-05 5.743e-05 
5.396e-05 5.391e-05 5.399e-05 5.403e-05 5.413e-05 5.425e-05 5.455e-05 5.488e-05 5.525e-05 5.569e-05 5.617e-05 5.595e-05 5.073e-05 0.001821 7.54e-05 5.638e-05 5.729e-05 5.725e-05 5.713e-05 5.7e-05 5.743e-05 
5.396e-05 5.391e-05 5.399e-05 5.403e-05 5.413e-05 5.425e-05 5.455e-05 5.488e-05 5.525e-05 5.569e-05 5.617e-05 5.595e-05 5.073e-05 0.001821 7.54e-05 5.638e-05 5.729e-05 5.725e-05 5.713e-05 5.7e-05 5.743e-05 
5.396e-05 5.391e-05 5.399e-05 5.403e-05 5.413e-05 5.425e-05 5.455e-05 5.488e-05 5.525e-05 5.569e-05 5.617e-05 5.595e-05 5.073e-05 0.001821 7.54e-05 5.638e-05 5.729e-05 5.725e-05 5.713e-05 5.7e-05 5.743e-05 
5.396e-05 5.391e-05 5.399e-05 5.403e-05 5.413e-05 5.425e-05 5.455e-05 5.488e-05 5.525e-05 5.569e-05 5.617e-05 5.595e-05 5.073e-05 0.001821 7.54e-05 5.638e-05 5.729e-05 5.725e-05 5.713e-05 5.7e-05 5.743e-05 
5.396e-05 5.391e-05 5.399e-05 5.403e-05 5.413e-05 5.425e-05 5.455e-05 5.488e-05 5.525e-05 5.569e-05 5.617e-05 5.595e-05 5.073e-05 0.001821 7.54e-05 5.638e-05 5.729e-05 5.725e-05 5.713e-05 5.7e-05 5.743e-05 
5.396e-05 5.391e-05 5.399e-05 5.403e-05 5.413e-05 5.425e-05 5.455e-05 5.488e-05 5.525e-05 5.569e-05 5.617e-05 5.595e-05 5.073e-05 0.001821 7.54e-05 5.638e-05 5.729e-05 5.725e-05 5.713e-05 5.7e-05 5.743e-05 
5.396e-05 5.391e-05 5.399e-05 5.403e-05 5.413e-05 5.425e-05 5.455e-05 5.488e-05 5.525e-05 5.569e-05 5.617e-05 5.595e-05 5.073e-05 0.001821 7.54e-05 5.638e-05 5.729e-05 5.725e-05 5.713e-05 5.7e-05 5.743e-05 
5.396e-05 5.391e-05 5.399e-05 5.403e-05 5.413e-05 5.425e-05 5.455e-05 5.488e-05 5.525e-05 5.569e-05 5.617e-05 5.595e-05 5.073e-05 0.001821 7.54e-05 5.638e-05 5.729e-05 5.725e-05 5.713e-05 5.7e-05 5.743e-05 
5.396e-05 5.391e-05 5.399e-05 5.403e-05 5.413e-05 5.425e-05 5.455e-05 5.488e-05 5.525e-05 5.569e-05 5.617e-05 5.595e-05 5.073e-05 0.001821 7.54e-05 5.638e-05 5.729e-05 5.725e-05 5.713e-05 5.7e-05 5.743e-05 
5.396e-05 5.391e-05 5.399e-05 5.403e-05 5.413e-05 5.425e-05 5.455e-05 5.488e-05 5.525e-05 5.569e-05 5.617e-05 5.595e-05 5.073e-05 0.001821 7.54e-05 5.638e-05 5.729e-05 5.725e-05 5.713e-05 5.7e-05 5.743e-05 
5.396e-05 5.391e-05 5.399e-05 5.403e-05 5.413e-05 5.425e-05 5.455e-05 5.488e-05 5.525e-05 5.569e-05 5.617e-05 5.595e-05 5.073e-05 0.001821 7.54e-05 5.638e-05 5.729e-05 5.725e-05 5.713e-05 5.7e-05 5.743e-05 
</DataArray>
</PointData>
</Piece>
</ImageData>
</VTKFile>
