<VTKFile type="ImageData">
<ImageData Origin="0 -10 0" Spacing="0.5 0.5 1" WholeExtent="0 20 0 40 0 0">
<Piece Extent="0 20 0 40 0 0">
<PointData>
<DataArray Name="f" NumberOfComponents="1" format="ascii" type="Float64">
4.117e-08 3.925e-09 2.64e-10 1.185e-11 3.274e-13 4.877e-15 3.006e-17 3.272e-20 0 0 0 0 0 0 0 0 0 0 0 0 0 
2.797e-06 4.273e-07 4.902e-08 4.078e-09 2.35e-10 8.809e-12 1.946e-13 2.123e-15 7.513e-18 0 0 0 0 0 0 0 0 0 0 0 0 
8.207e-05 1.874e-05 3.362e-06 4.624e-07 4.733e-08 3.476e-09 1.742e-10 5.537e-12 9.863e-14 7.698e-16 1.229e-18 0 0 0 0 0 0 0 0 0 0 
0.00115 0.0003715 9.779e-05 2.057e-05 3.385e-06 4.255e-07 3.966e-08 2.636e-09 1.182e-10 3.282e-12 4.832e-14 2.644e-16 7.646e-20 0 0 0 0 0 0 0 0 
0.00841 0.003661 0.001341 0.0004063 0.0001001 1.972e-05 3.044e-06 3.597e-07 3.159e-08 1.98e-09 8.347e-11 2.149e-12 2.798e-14 1.093e-16 0 0 0 0 0 0 0 
0.03473 0.01926 0.009227 0.003756 0.001278 0.0003579 8.106e-05 1.457e-05 2.032e-06 2.138e-07 1.632e-08 8.542e-10 2.801e-11 4.847e-13 2.822e-15 6.912e-20 0 0 0 0 0 
0.09084 0.06104 0.03625 0.0187 0.008233 0.003039 0.000924 0.000227 4.404e-05 6.562e-06 7.231e-07 5.575e-08 2.75e-09 7.317e-11 6.735e-13 1.112e-16 0 0 0 0 0 
0.1665 0.1303 0.0924 0.05822 0.03194 0.01496 0.005865 0.001885 0.0004855 9.731e-05 1.462e-05 1.56e-06 1.083e-07 4.16e-09 5.863e-11 3.697e-14 7.024e-18 0 0 0 0 
0.23 0.2023 0.1656 0.1235 0.08208 0.04752 0.02343 0.009623 0.00321 0.0008443 0.0001687 2.429e-05 2.318e-06 1.259e-07 2.696e-09 4.983e-12 4.074e-15 3.651e-18 0 0 0 
0.2535 0.2423 0.2216 0.1898 0.1488 0.104 0.06327 0.03263 0.01388 0.004727 0.00124 0.0002382 3.093e-05 2.359e-06 7.648e-08 3.518e-10 8.759e-13 2.018e-15 2.723e-18 0 0 
0.2324 0.2351 0.2328 0.2221 0.1995 0.1645 0.121 0.07713 0.04136 0.01806 0.006178 0.001574 0.0002771 2.962e-05 1.454e-06 1.487e-08 9.162e-11 4.624e-13 1.313e-15 1.406e-18 0 
0.1809 0.1911 0.2002 0.2065 0.2063 0.1951 0.1697 0.1315 0.08777 0.04874 0.02163 0.007292 0.00174 0.0002612 1.943e-05 4.072e-07 5.419e-09 5.375e-11 2.91e-13 5.857e-16 0 
0.1186 0.1316 0.1448 0.1582 0.1709 0.1799 0.1799 0.1657 0.1356 0.09482 0.0543 0.02421 0.007845 0.00166 0.0001875 7.584e-06 1.981e-07 3.578e-09 3.443e-11 1.22e-13 0 
0.06278 0.07534 0.08835 0.1019 0.1169 0.1332 0.1486 0.1582 0.1552 0.1346 0.09872 0.05805 0.02561 0.007684 0.001323 9.868e-05 4.727e-06 1.471e-07 2.396e-09 1.43e-11 0 
0.02502 0.03407 0.04424 0.05501 0.06709 0.08139 0.09842 0.1172 0.1337 0.1406 0.1302 0.1004 0.06035 0.02582 0.006817 0.0009056 7.57e-05 3.913e-06 1.044e-07 1.019e-09 0 
0.006883 0.0113 0.01721 0.02406 0.03199 0.04155 0.05365 0.06927 0.08854 0.1091 0.1242 0.1238 0.101 0.06192 0.0252 0.005811 0.0008206 6.891e-05 2.959e-06 4.662e-08 0 
0.001178 0.002519 0.004839 0.008054 0.0122 0.01746 0.02428 0.03352 0.04637 0.06399 0.08589 0.1072 0.1168 0.1023 0.06438 0.02529 0.005937 0.0008061 5.566e-05 1.417e-06 0 
0.000109 0.0003391 0.0009058 0.001924 0.003512 0.005791 0.008953 0.01337 0.01975 0.02932 0.0438 0.06459 0.08991 0.1099 0.1062 0.07019 0.02751 0.006137 0.0006946 2.917e-05 0 
4.218e-06 2.388e-05 0.0001029 0.0003037 0.000711 0.001424 0.002563 0.00429 0.006886 0.01087 0.01725 0.0278 0.04521 0.07154 0.1016 0.1111 0.07503 0.02881 0.005616 0.0004099 0 
2.934e-08 7.129e-07 6.427e-06 2.93e-05 9.423e-05 0.0002423 0.000533 0.001048 0.001903 0.003284 0.005526 0.009285 0.01589 0.02797 0.05013 0.08427 0.1035 0.07461 0.02754 0.003894 0 
0 1.033e-08 2.259e-07 1.711e-06 7.943e-06 2.732e-05 7.647e-05 0.000184 0.0003949 0.0007781 0.001444 0.002584 0.004566 0.008131 0.01482 0.02879 0.06135 0.0893 0.06956 0.02393 0.005257 
0 1.941e-10 7.12e-09 7.863e-08 4.985e-07 2.245e-06 7.971e-06 2.371e-05 6.145e-05 0.0001429 0.000305 0.0006114 0.001177 0.002223 0.004215 0.008459 0.02169 0.05103 0.07556 0.05779 0.03024 
0 2.657e-12 1.565e-10 2.444e-09 2.094e-08 1.234e-07 5.594e-07 2.079e-06 6.607e-06 1.849e-05 4.659e-05 0.0001079 0.0002338 0.0004838 0.0009768 0.002064 0.00588 0.01809 0.04358 0.06272 0.05778 
0 2.571e-14 2.373e-12 5.085e-11 5.787e-10 4.434e-09 2.565e-08 1.197e-07 4.709e-07 1.607e-06 4.869e-06 1.333e-05 3.351e-05 7.861e-05 0.0001751 0.0004036 0.0013 0.004705 0.01578 0.03742 0.05447 
0 1.697e-16 2.408e-14 6.904e-13 1.026e-11 1.011e-10 7.436e-10 4.361e-09 2.131e-08 8.946e-08 3.297e-07 1.085e-06 3.235e-06 8.854e-06 2.254e-05 5.955e-05 0.0002307 0.0009707 0.00404 0.01395 0.02967 
0 7.316e-19 1.559e-16 5.859e-15 1.12e-13 1.408e-12 1.308e-11 9.619e-11 5.851e-10 3.034e-09 1.37e-08 5.482e-08 1.968e-07 6.415e-07 1.917e-06 6.144e-06 3.149e-05 0.0001606 0.0007912 0.00356 0.01027 
0 0 6.033e-19 2.924e-17 7.122e-16 1.132e-14 1.323e-13 1.218e-12 9.227e-12 5.926e-11 3.297e-10 1.616e-09 7.059e-09 2.779e-08 9.942e-08 4.12e-07 3.15e-06 2.078e-05 0.0001223 0.0006672 0.00244 
0 0 0 7.91e-20 2.439e-18 4.885e-17 7.171e-16 8.262e-15 7.805e-14 6.228e-13 4.29e-12 2.591e-11 1.389e-10 6.677e-10 2.9e-09 1.69e-08 2.208e-07 2.028e-06 1.48e-05 9.577e-05 0.0004228 
0 0 0 0 0 1.024e-19 1.892e-18 2.736e-17 3.236e-16 3.225e-15 2.766e-14 2.075e-13 1.377e-12 8.164e-12 4.356e-11 4.044e-10 1.044e-08 1.431e-07 1.361e-06 1.061e-05 5.547e-05 
0 0 0 0 0 0 0 3.893e-20 5.81e-19 7.294e-18 7.865e-17 7.4e-16 6.147e-15 4.549e-14 3.022e-13 5.363e-12 3.207e-10 7e-09 9.132e-08 8.863e-07 5.529e-06 
0 0 0 0 0 0 0 0 0 0 8.333e-20 9.985e-19 1.054e-17 9.904e-17 8.33e-16 3.641e-14 6.118e-12 2.267e-10 4.257e-09 5.357e-08 4.079e-07 
0 0 0 0 0 0 0 0 0 0 0 0 0 6.657e-20 7.265e-19 1.091e-16 6.8e-14 4.603e-12 1.301e-10 2.211e-09 2.121e-08 
0 0 0 0 0 0 0 0 0 0 0 0 0 0 0 1.122e-19 3.978e-16 5.445e-14 2.419e-12 5.776e-11 7.244e-10 
0 0 0 0 0 0 0 0 0 0 0 0 0 0 0 0 1.037e-18 3.369e-16 2.453e-14 8.564e-13 1.465e-11 
0 0 0 0 0 0 0 0 0 0 0 0 0 0 0 0 0 9.02e-19 1.128e-16 6.037e-15 1.488e-13 
0 0 0 0 0 0 0 0 0 0 0 0 0 0 0 0 0 0 1.572e-19 1.395e-17 5.476e-16 
0 0 0 0 0 0 0 0 0 0 0 0 0 0 0 0 0 0 0 0 2.083e-19 
0 0 0 0 0 0 0 0 0 0 0 0 0 0 0 0 0 0 0 0 0 
0 0 0 0 0 0 0 0 0 0 0 0 0 0 0 0 0 0 0 0 0 
0 0 0 0 0 0 0 0 0 0 0 0 0 0 0 0 0 0 0 0 0 
0 0 0 0 0 0 0 0 0 0 0 0 0 0 0 0 0 0 0 0 0 
</DataArray>
<DataArray Name="E" NumberOfComponents="1" format="ascii" type="Float64">
4.046 3.974 3.821 3.647 3.451 3.232 2.989 2.722 2.434 2.124 1.794 1.446 1.081 0.7008 0.3075 -0.09755 -0.5128 -0.937 -1.369 -1.811 -2.034 
4.046 3.974 3.821 3.647 3.451 3.232 2.989 2.722 2.434 2.124 1.794 1.446 1.081 0.7008 0.3075 -0.09755 -0.5128 -0.937 -1.369 -1.811 -2.034 
4.046 3.974 3.821 3.647 3.451 3.232 2.989 2.722 2.434 2.124 1.794 1.446 1.081 0.7008 0.3075 -0.09755 -0.5128 -0.937 -1.369 -1.811 -2.034 
4.046 3.974 3.821 3.647 3.451 3.232 2.989 2.722 2.434 2.124 1.794 1.446 1.081 0.7008 0.3075 -0.09755 -0.5128 -0.937 -1.369 -1.811 -2.034 
4.046 3.974 3.821 3.647 3.451 3.232 2.989 2.722 2.434 2.124 1.794 1.446 1.081 0.7008 0.3075 -0.09755 -0.5128 -0.937 -1.369 -1.811 -2.034 
4.046 3.974 3.821 3.647 3.451 3.232 2.989 2.722 2.434 2.124 1.794 1.446 1.081 0.7008 0.3075 -0.09755 -0.5128 -0.937 -1.369 -1.811 -2.034 
4.046 3.974 3.821 3.647 3.451 3.232 2.989 2.722 2.434 2.124 1.794 1.446 1.081 0.7008 0.3075 -0.09755 -0.5128 -0.937 -1.369 -1.811 -2.034 
4.046 3.974 3.821 3.647 3.451 3.232 2.989 2.722 2.434 2.124 1.794 1.446 1.081 0.7008 0.3075 -0.09755 -0.5128 -0.937 -1.369 -1.811 -2.034 
4.046 3.974 3.821 3.647 3.451 3.232 2.989 2.722 2.434 2.124 1.794 1.446 1.081 0.7008 0.3075 -0.09755 -0.5128 -0.937 -1.369 -1.811 -2.034 
4.046 3.974 3.821 3.647 3.451 3.232 2.989 2.722 2.434 2.124 1.794 1.446 1.081 0.7008 0.3075 -0.09755 -0.5128 -0.937 -1.369 -1.811 -2.034 
4.046 3.974 3.821 3.647 3.451 3.232 2.989 2.722 2.434 2.124 1.794 1.446 1.081 0.7008 0.3075 -0.09755 -0.5128 -0.937 -1.369 -1.811 -2.034 
4.046 3.974 3.821 3.647 3.451 3.232 2.989 2.722 2.434 2.124 1.794 1.446 1.081 0.7008 0.3075 -0.09755 -0.5128 -0.937 -1.369 -1.811 -2.034 
4.046 3.974 3.821 3.647 3.451 3.232 2.989 2.722 2.434 2.124 1.794 1.446 1.081 0.7008 0.3075 -0.09755 -0.5128 -0.937 -1.369 -1.811 -2.034 
4.046 3.974 3.821 3.647 3.451 3.232 2.989 2.722 2.434 2.124 1.794 1.446 1.081 0.7008 0.3075 -0.09755 -0.5128 -0.937 -1.369 -1.811 -2.034 
4.046 3.974 3.821 3.647 3.451 3.232 2.989 2.722 2.434 2.124 1.794 1.446 1.081 0.7008 0.3075 -0.09755 -0.5128 -0.937 -1.369 -1.811 -2.034 
4.046 3.974 3.821 3.647 3.451 3.232 2.989 2.722 2.434 2.124 1.794 1.446 1.081 0.7008 0.3075 -0.09755 -0.5128 -0.937 -1.369 -1.811 -2.034 
4.046 3.974 3.821 3.647 3.451 3.232 2.989 2.722 2.434 2.124 1.794 1.446 1.081 0.7008 0.3075 -0.09755 -0.5128 -0.937 -1.369 -1.811 -2.034 
4.046 3.974 3.821 3.647 3.451 3.232 2.989 2.722 2.434 2.124 1.794 1.446 1.081 0.7008 0.3075 -0.09755 -0.5128 -0.937 -1.369 -1.811 -2.034 
4.046 3.974 3.821 3.647 3.451 3.232 2.989 2.722 2.434 2.124 1.794 1.446 1.081 0.7008 0.3075 -0.09755 -0.5128 -0.937 -1.369 -1.811 -2.034 
4.046 3.974 3.821 3.647 3.451 3.232 2.989 2.722 2.434 2.124 1.794 1.446 1.081 0.7008 0.3075 -0.09755 -0.5128 -0.937 -1.369 -1.811 -2.034 
4.046 3.974 3.821 3.647 3.451 3.232 2.989 2.722 2.434 2.124 1.794 1.446 1.081 0.7008 0.3075 -0.09755 -0.5128 -0.937 -1.369 -1.811 -2.034 
4.046 3.974 3.821 3.647 3.451 3.232 2.989 2.722 2.434 2.124 1.794 1.446 1.081 0.7008 0.3075 -0.09755 -0.5128 -0.937 -1.369 -1.811 -2.034 
4.046 3.974 3.821 3.647 3.451 3.232 2.989 2.722 2.434 2.124 1.794 1.446 1.081 0.7008 0.3075 -0.09755 -0.5128 -0.937 -1.369 -1.811 -2.034 
4.046 3.974 3.821 3.647 3.451 3.232 2.989 2.722 2.434 2.124 1.794 1.446 1.081 0.7008 0.3075 -0.09755 -0.5128 -0.937 -1.369 -1.811 -2.034 
4.046 3.974 3.821 3.647 3.451 3.232 2.989 2.722 2.434 2.124 1.794 1.446 1.081 0.7008 0.3075 -0.09755 -0.5128 -0.937 -1.369 -1.811 -2.034 
4.046 3.974 3.821 3.647 3.451 3.232 2.989 2.722 2.434 2.124 1.794 1.446 1.081 0.7008 0.3075 -0.09755 -0.5128 -0.937 -1.369 -1.811 -2.034 
4.046 3.974 3.821 3.647 3.451 3.232 2.989 2.722 2.434 2.124 1.794 1.446 1.081 0.7008 0.3075 -0.09755 -0.5128 -0.937 -1.369 -1.811 -2.034 
4.046 3.974 3.821 3.647 3.451 3.232 2.989 2.722 2.434 2.124 1.794 1.446 1.081 0.7008 0.3075 -0.09755 -0.5128 -0.937 -1.369 -1.811 -2.034 
4.046 3.974 3.821 3.647 3.451 3.232 2.989 2.722 2.434 2.124 1.794 1.446 1.081 0.7008 0.3075 -0.09755 -0.5128 -0.937 -1.369 -1.811 -2.034 
4.046 3.974 3.821 3.647 3.451 3.232 2.989 2.722 2.434 2.124 1.794 1.446 1.081 0.7008 0.3075 -0.09755 -0.5128 -0.937 -1.369 -1.811 -2.034 
4.046 3.974 3.821 3.647 3.451 3.232 2.989 2.722 2.434 2.124 1.794 1.446 1.081 0.7008 0.3075 -0.09755 -0.5128 -0.937 -1.369 -1.811 -2.034 
4.046 3.974 3.821 3.647 3.451 3.232 2.989 2.722 2.434 2.124 1.794 1.446 1.081 0.7008 0.3075 -0.09755 -0.5128 -0.937 -1.369 -1.811 -2.034 
4.046 3.974 3.821 3.647 3.451 3.232 2.989 2.722 2.434 2.124 1.794 1.446 1.081 0.7008 0.3075 -0.09755 -0.5128 -0.937 -1.369 -1.811 -2.034 
4.046 3.974 3.821 3.647 3.451 3.232 2.989 2.722 2.434 2.124 1.794 1.446 1.081 0.7008 0.3075 -0.09755 -0.5128 -0.937 -1.369 -1.811 -2.034 
4.046 3.974 3.821 3.647 3.451 3.232 2.989 2.722 2.434 2.124 1.794 1.446 1.081 0.7008 0.3075 -0.09755 -0.5128 -0.937 -1.369 -1.811 -2.034 
4.046 3.974 3.821 3.647 3.451 3.232 2.989 2.722 2.434 2.124 1.794 1.446 1.081 0.7008 0.3075 -0.09755 -0.5128 -0.937 -1.369 -1.811 -2.034 
4.046 3.974 3.821 3.647 3.451 3.232 2.989 2.722 2.434 2.124 1.794 1.446 1.081 0.7008 0.3075 -0.09755 -0.5128 -0.937 -1.369 -1.811 -2.034 
4.046 3.974 3.821 3.647 3.451 3.232 2.989 2.722 2.434 2.124 1.794 1.446 1.081 0.7008 0.3075 -0.09755 -0.5128 -0.937 -1.369 -1.811 -2.034 
4.046 3.974 3.821 3.647 3.451 3.232 2.989 2.722 2.434 2.124 1.794 1.446 1.081 0.7008 0.3075 -0.09755 -0.5128 -0.937 -1.369 -1.811 -2.034 
4.046 3.974 3.821 3.647 3.451 3.232 2.989 2.722 2.434 2.124 1.794 1.446 1.081 0.7008 0.3075 -0.09755 -0.5128 -0.937 -1.369 -1.811 -2.034 
4.046 3.974 3.821 3.647 3.451 3.232 2.989 2.722 2.434 2.124 1.794 1.446 1.081 0.7008 0.3075 -0.09755 -0.5128 -0.937 -1.369 -1.811 -2.034 
</DataArray>
<DataArray Name="ne" NumberOfComponents="1" format="ascii" type="Float64">
0.7438 0.712 0.6741 0.6311 0.585 0.5377 0.4904 0.4445 0.4006 0.3594 0.3212 0.2862 0.2543 0.2258 0.2008 0.1791 0.1598 0.1435 0.1272 0.1074 0.09933 
0.7438 0.712 0.6741 0.6311 0.585 0.5377 0.4904 0.4445 0.4006 0.3594 0.3212 0.2862 0.2543 0.2258 0.2008 0.1791 0.1598 0.1435 0.1272 0.1074 0.09933 
0.7438 0.712 0.6741 0.6311 0.585 0.5377 0.4904 0.4445 0.4006 0.3594 0.3212 0.2862 0.2543 0.2258 0.2008 0.1791 0.1598 0.1435 0.1272 0.1074 0.09933 
0.7438 0.712 0.6741 0.6311 0.585 0.5377 0.4904 0.4445 0.4006 0.3594 0.3212 0.2862 0.2543 0.2258 0.2008 0.1791 0.1598 0.1435 0.1272 0.1074 0.09933 
0.7438 0.712 0.6741 0.6311 0.585 0.5377 0.4904 0.4445 0.4006 0.3594 0.3212 0.2862 0.2543 0.2258 0.2008 0.1791 0.1598 0.1435 0.1272 0.1074 0.09933 
0.7438 0.712 0.6741 0.6311 0.585 0.5377 0.4904 0.4445 0.4006 0.3594 0.3212 0.2862 0.2543 0.2258 0.2008 0.1791 0.1598 0.1435 0.1272 0.1074 0.09933 
0.7438 0.712 0.6741 0.6311 0.585 0.5377 0.4904 0.4445 0.4006 0.3594 0.3212 0.2862 0.2543 0.2258 0.2008 0.1791 0.1598 0.1435 0.1272 0.1074 0.09933 
0.7438 0.712 0.6741 0.6311 0.585 0.5377 0.4904 0.4445 0.4006 0.3594 0.3212 0.2862 0.2543 0.2258 0.2008 0.1791 0.1598 0.1435 0.1272 0.1074 0.09933 
0.7438 0.712 0.6741 0.6311 0.585 0.5377 0.4904 0.4445 0.4006 0.3594 0.3212 0.2862 0.2543 0.2258 0.2008 0.1791 0.1598 0.1435 0.1272 0.1074 0.09933 
0.7438 0.712 0.6741 0.6311 0.585 0.5377 0.4904 0.4445 0.4006 0.3594 0.3212 0.2862 0.2543 0.2258 0.2008 0.1791 0.1598 0.1435 0.1272 0.1074 0.09933 
0.7438 0.712 0.6741 0.6311 0.585 0.5377 0.4904 0.4445 0.4006 0.3594 0.3212 0.2862 0.2543 0.2258 0.2008 0.1791 0.1598 0.1435 0.1272 0.1074 0.09933 
0.7438 0.712 0.6741 0.6311 0.585 0.5377 0.4904 0.4445 0.4006 0.3594 0.3212 0.2862 0.2543 0.2258 0.2008 0.1791 0.1598 0.1435 0.1272 0.1074 0.09933 
0.7438 0.712 0.6741 0.6311 0.585 0.5377 0.4904 0.4445 0.4006 0.3594 0.3212 0.2862 0.2543 0.2258 0.2008 0.1791 0.1598 0.1435 0.1272 0.1074 0.09933 
0.7438 0.712 0.6741 0.6311 0.585 0.5377 0.4904 0.4445 0.4006 0.3594 0.3212 0.2862 0.2543 0.2258 0.2008 0.1791 0.1598 0.1435 0.1272 0.1074 0.09933 
0.7438 0.712 0.6741 0.6311 0.585 0.5377 0.4904 0.4445 0.4006 0.3594 0.3212 0.2862 0.2543 0.2258 0.2008 0.1791 0.1598 0.1435 0.1272 0.1074 0.09933 
0.7438 0.712 0.6741 0.6311 0.585 0.5377 0.4904 0.4445 0.4006 0.3594 0.3212 0.2862 0.2543 0.2258 0.2008 0.1791 0.1598 0.1435 0.1272 0.1074 0.09933 
0.7438 0.712 0.6741 0.6311 0.585 0.5377 0.4904 0.4445 0.4006 0.3594 0.3212 0.2862 0.2543 0.2258 0.2008 0.1791 0.1598 0.1435 0.1272 0.1074 0.09933 
0.7438 0.712 0.6741 0.6311 0.585 0.5377 0.4904 0.4445 0.4006 0.3594 0.3212 0.2862 0.2543 0.2258 0.2008 0.1791 0.1598 0.1435 0.1272 0.1074 0.09933 
0.7438 0.712 0.6741 0.6311 0.585 0.5377 0.4904 0.4445 0.4006 0.3594 0.3212 0.2862 0.2543 0.2258 0.2008 0.1791 0.1598 0.1435 0.1272 0.1074 0.09933 
0.7438 0.712 0.6741 0.6311 0.585 0.5377 0.4904 0.4445 0.4006 0.3594 0.3212 0.2862 0.2543 0.2258 0.2008 0.1791 0.1598 0.1435 0.1272 0.1074 0.09933 
0.7438 0.712 0.6741 0.6311 0.585 0.5377 0.4904 0.4445 0.4006 0.3594 0.3212 0.2862 0.2543 0.2258 0.2008 0.1791 0.1598 0.1435 0.1272 0.1074 0.09933 
0.7438 0.712 0.6741 0.6311 0.585 0.5377 0.4904 0.4445 0.4006 0.3594 0.3212 0.2862 0.2543 0.2258 0.2008 0.1791 0.1598 0.1435 0.1272 0.1074 0.09933 
0.7438 0.712 0.6741 0.6311 0.585 0.5377 0.4904 0.4445 0.4006 0.3594 0.3212 0.2862 0.2543 0.2258 0.2008 0.1791 0.1598 0.1435 0.1272 0.1074 0.09933 
0.7438 0.712 0.6741 0.6311 0.585 0.5377 0.4904 0.4445 0.4006 0.3594 0.3212 0.2862 0.2543 0.2258 0.2008 0.1791 0.1598 0.1435 0.1272 0.1074 0.09933 
0.7438 0.712 0.6741 0.6311 0.585 0.5377 0.4904 0.4445 0.4006 0.3594 0.3212 0.2862 0.2543 0.2258 0.2008 0.1791 0.1598 0.1435 0.1272 0.1074 0.09933 
0.7438 0.712 0.6741 0.6311 0.585 0.5377 0.4904 0.4445 0.4006 0.3594 0.3212 0.2862 0.2543 0.2258 0.2008 0.1791 0.1598 0.1435 0.1272 0.1074 0.09933 
0.7438 0.712 0.6741 0.6311 0.585 0.5377 0.4904 0.4445 0.4006 0.3594 0.3212 0.2862 0.2543 0.2258 0.2008 0.1791 0.1598 0.1435 0.1272 0.1074 0.09933 
0.7438 0.712 0.6741 0.6311 0.585 0.5377 0.4904 0.4445 0.4006 0.3594 0.3212 0.2862 0.2543 0.2258 0.2008 0.1791 0.1598 0.1435 0.1272 0.1074 0.09933 
0.7438 0.712 0.6741 0.6311 0.585 0.5377 0.4904 0.4445 0.4006 0.3594 0.3212 0.2862 0.2543 0.2258 0.2008 0.1791 0.1598 0.1435 0.1272 0.1074 0.09933 
0.7438 0.712 0.6741 0.6311 0.585 0.5377 0.4904 0.4445 0.4006 0.3594 0.3212 0.2862 0.2543 0.2258 0.2008 0.1791 0.1598 0.1435 0.1272 0.1074 0.09933 
0.7438 0.712 0.6741 0.6311 0.585 0.5377 0.4904 0.4445 0.4006 0.3594 0.3212 0.2862 0.2543 0.2258 0.2008 0.1791 0.1598 0.1435 0.1272 0.1074 0.09933 
0.7438 0.712 0.6741 0.6311 0.585 0.5377 0.4904 0.4445 0.4006 0.3594 0.3212 0.2862 0.2543 0.2258 0.2008 0.1791 0.1598 0.1435 0.1272 0.1074 0.09933 
0.7438 0.712 0.6741 0.6311 0.585 0.5377 0.4904 0.4445 0.4006 0.3594 0.3212 0.2862 0.2543 0.2258 0.2008 0.1791 0.1598 0.1435 0.1272 0.1074 0.09933 
0.7438 0.712 0.6741 0.6311 0.585 0.5377 0.4904 0.4445 0.4006 0.3594 0.3212 0.2862 0.2543 0.2258 0.2008 0.1791 0.1598 0.1435 0.1272 0.1074 0.09933 
0.7438 0.712 0.6741 0.6311 0.585 0.5377 0.4904 0.4445 0.4006 0.3594 0.3212 0.2862 0.2543 0.2258 0.2008 0.1791 0.1598 0.1435 0.1272 0.1074 0.09933 
0.7438 0.712 0.6741 0.6311 0.585 0.5377 0.4904 0.4445 0.4006 0.3594 0.3212 0.2862 0.2543 0.2258 0.2008 0.1791 0.1598 0.1435 0.1272 0.1074 0.09933 
0.7438 0.712 0.6741 0.6311 0.585 0.5377 0.4904 0.4445 0.4006 0.3594 0.3212 0.2862 0.2543 0.2258 0.2008 0.1791 0.1598 0.1435 0.1272 0.1074 0.09933 
0.7438 0.712 0.6741 0.6311 0.585 0.5377 0.4904 0.4445 0.4006 0.3594 0.3212 0.2862 0.2543 0.2258 0.2008 0.1791 0.1598 0.1435 0.1272 0.1074 0.09933 
0.7438 0.712 0.6741 0.6311 0.585 0.5377 0.4904 0.4445 0.4006 0.3594 0.3212 0.2862 0.2543 0.2258 0.2008 0.1791 0.1598 0.1435 0.1272 0.1074 0.09933 
0.7438 0.712 0.6741 0.6311 0.585 0.5377 0.4904 0.4445 0.4006 0.3594 0.3212 0.2862 0.2543 0.2258 0.2008 0.1791 0.1598 0.1435 0.1272 0.1074 0.09933 
0.7438 0.712 0.6741 0.6311 0.585 0.5377 0.4904 0.4445 0.4006 0.3594 0.3212 0.2862 0.2543 0.2258 0.2008 0.1791 0.1598 0.1435 0.1272 0.1074 0.09933 
</DataArray>
</PointData>
</Piece>
</ImageData>
</VTKFile>
