<VTKFile type="ImageData">
<ImageData Origin="0 -10 0" Spacing="0.5 0.5 1" WholeExtent="0 20 0 40 0 0">
<Piece Extent="0 20 0 40 0 0">
<PointData>
<DataArray Name="f" NumberOfComponents="1" format="ascii" type="Float64">
8.471e-12 1.398e-13 4.14e-18 0 0 0 0 0 0 0 0 0 0 0 0 0 0 0 0 0 0 
3.078e-09 6.57e-11 2.888e-14 2.555e-16 0 0 0 0 0 0 0 0 0 0 0 0 0 0 0 0 0 
7.813e-08 3.347e-09 2.264e-11 5.026e-13 2.231e-17 8.968e-20 0 0 0 0 0 0 0 0 0 0 0 0 0 0 0 
1.187e-06 1.282e-07 7.088e-09 2.029e-10 1.338e-13 2.374e-15 2.403e-17 1.104e-19 0 0 0 0 0 0 0 0 0 0 0 0 0 
7.107e-06 1.372e-06 1.505e-07 8.706e-09 9.099e-11 4.055e-12 1.261e-13 2.558e-15 3.02e-17 1.665e-19 0 0 0 0 0 0 0 0 0 0 0 
2.361e-05 7.966e-06 1.682e-06 2.156e-07 1.384e-08 6.827e-10 4.035e-11 1.682e-12 4.645e-14 7.633e-16 6.068e-18 1.39e-20 0 0 0 0 0 0 0 0 0 
4.555e-05 2.439e-05 8.518e-06 1.899e-06 2.469e-07 2.317e-08 2.082e-09 1.322e-10 5.576e-12 1.403e-13 1.718e-15 6.245e-18 0 0 0 0 0 0 0 0 0 
5.596e-05 4.576e-05 2.501e-05 8.995e-06 2.029e-06 3.242e-07 4.246e-08 3.922e-09 2.409e-10 8.892e-12 1.623e-13 9.259e-16 2.942e-19 0 0 0 0 0 0 0 0 
4.534e-05 5.565e-05 4.635e-05 2.585e-05 9.399e-06 2.376e-06 4.476e-07 5.928e-08 5.23e-09 2.795e-10 7.54e-12 6.741e-14 4.269e-17 0 0 0 0 0 0 0 0 
2.436e-05 4.466e-05 5.598e-05 4.737e-05 2.668e-05 1.025e-05 2.777e-06 5.261e-07 6.645e-08 5.129e-09 2.045e-10 2.87e-12 3.612e-15 0 0 0 0 0 0 0 0 
8.537e-06 2.353e-05 4.433e-05 5.646e-05 4.832e-05 2.775e-05 1.089e-05 2.963e-06 5.376e-07 6.013e-08 3.557e-09 7.865e-11 1.961e-13 0 0 0 0 0 0 0 0 
1.882e-06 7.935e-06 2.272e-05 4.377e-05 5.678e-05 4.875e-05 2.807e-05 1.108e-05 2.91e-06 4.75e-07 4.198e-08 1.472e-09 7.249e-12 0 0 0 0 0 0 0 0 
2.452e-07 1.637e-06 7.299e-06 2.169e-05 4.319e-05 5.626e-05 4.845e-05 2.811e-05 1.082e-05 2.606e-06 3.478e-07 1.951e-08 1.892e-10 0 0 0 0 0 0 0 0 
1.71e-08 1.922e-07 1.392e-06 6.63e-06 2.083e-05 4.24e-05 5.6e-05 4.868e-05 2.788e-05 1.006e-05 2.058e-06 1.869e-07 3.563e-09 0 0 0 0 0 0 0 0 
5.416e-10 1.146e-08 1.443e-07 1.177e-06 6.097e-06 2.037e-05 4.267e-05 5.689e-05 4.951e-05 2.731e-05 8.719e-06 1.306e-06 4.897e-08 0 0 0 0 0 0 0 0 
5.658e-12 2.903e-10 6.975e-09 1.101e-07 1.004e-06 5.963e-06 2.067e-05 4.354e-05 5.908e-05 5.106e-05 2.612e-05 6.607e-06 4.915e-07 2.637e-17 0 0 0 0 0 0 0 
7.496e-15 2.292e-12 1.163e-10 4.649e-09 8.12e-08 9.871e-07 5.981e-06 2.062e-05 4.505e-05 6.303e-05 5.348e-05 2.367e-05 3.562e-06 8.961e-14 2.429e-20 0 0 0 0 0 0 
8.031e-20 2.405e-15 2.653e-13 6.716e-11 2.453e-09 8.205e-08 9.275e-07 5.46e-06 2e-05 4.73e-05 6.981e-05 5.702e-05 1.817e-05 1.927e-10 1.5e-15 4.66e-20 0 0 0 0 0 
0 0 5.656e-18 1.448e-13 1.177e-11 2.758e-09 6.2e-08 6.588e-07 4.291e-06 1.826e-05 5.031e-05 8.252e-05 6.191e-05 2.332e-07 2.523e-11 1.397e-15 0 0 0 0 0 
0 0 0 0 7.996e-16 1.868e-11 9.099e-10 2.005e-08 2.681e-07 2.359e-06 1.386e-05 5.281e-05 0.0001187 0.00012 1.105e-07 1.284e-11 1.671e-16 0 0 0 0 
0 0 0 0 0 0 0 0 0 0 2.442e-16 2.95e-11 6.17e-07 0.003582 0.0001098 3.778e-08 1.045e-12 1.443e-18 0 0 0 
0 0 0 0 0 0 0 0 0 0 1.312e-20 2.13e-15 5.896e-11 4.412e-07 0.0001206 5.686e-05 1.508e-05 2.59e-06 2.965e-07 2.23e-08 1.21e-09 
0 0 0 0 0 0 0 0 0 0 0 6.173e-20 2.248e-15 2.187e-11 5.966e-05 8.474e-05 5.302e-05 1.952e-05 4.629e-06 7.156e-07 7.88e-08 
0 0 0 0 0 0 0 0 0 0 0 0 2.983e-20 3.756e-16 1.764e-05 5.788e-05 7.255e-05 4.988e-05 2.131e-05 5.863e-06 1.13e-06 
0 0 0 0 0 0 0 0 0 0 0 0 0 0 3.473e-06 2.394e-05 5.52e-05 6.595e-05 4.762e-05 2.197e-05 7.006e-06 
0 0 0 0 0 0 0 0 0 0 0 0 0 0 4.798e-07 6.672e-06 2.686e-05 5.316e-05 6.21e-05 4.612e-05 2.34e-05 
0 0 0 0 0 0 0 0 0 0 0 0 0 0 4.778e-08 1.317e-06 8.943e-06 2.833e-05 5.182e-05 5.998e-05 4.689e-05 
0 0 0 0 0 0 0 0 0 0 0 0 0 0 3.469e-09 1.883e-07 2.106e-06 1.041e-05 2.908e-05 5.112e-05 5.994e-05 
0 0 0 0 0 0 0 0 0 0 0 0 0 0 1.836e-10 1.961e-08 3.551e-07 2.688e-06 1.125e-05 2.942e-05 5.062e-05 
0 0 0 0 0 0 0 0 0 0 0 0 0 0 7.004e-12 1.476e-09 4.275e-08 4.886e-07 3.015e-06 1.155e-05 2.869e-05 
0 0 0 0 0 0 0 0 0 0 0 0 0 0 1.884e-13 7.862e-11 3.611e-09 6.165e-08 5.552e-07 3.079e-06 1.09e-05 
0 0 0 0 0 0 0 0 0 0 0 0 0 0 3.446e-15 2.857e-12 2.069e-10 5.238e-09 6.836e-08 5.444e-07 2.725e-06 
0 0 0 0 0 0 0 0 0 0 0 0 0 0 4.04e-17 6.68e-14 7.594e-12 2.842e-10 5.357e-09 6.107e-08 4.316e-07 
0 0 0 0 0 0 0 0 0 0 0 0 0 0 2.758e-19 9.122e-16 1.626e-13 8.996e-12 2.455e-10 4.019e-09 4.034e-08 
0 0 0 0 0 0 0 0 0 0 0 0 0 0 0 6.111e-18 1.711e-15 1.411e-13 5.646e-12 1.347e-10 1.96e-09 
0 0 0 0 0 0 0 0 0 0 0 0 0 0 0 1.349e-20 5.996e-18 7.616e-16 4.667e-14 1.7e-12 3.807e-11 
0 0 0 0 0 0 0 0 0 0 0 0 0 0 0 0 0 1.632e-19 2.99e-17 2.551e-15 1.265e-13 
0 0 0 0 0 0 0 0 0 0 0 0 0 0 0 0 0 0 0 1.072e-19 2.359e-17 
0 0 0 0 0 0 0 0 0 0 0 0 0 0 0 0 0 0 0 0 0 
0 0 0 0 0 0 0 0 0 0 0 0 0 0 0 0 0 0 0 0 0 
0 0 0 0 0 0 0 0 0 0 0 0 0 0 0 0 0 0 0 0 0 
</DataArray>
<DataArray Name="E" NumberOfComponents="1" format="ascii" type="Float64">
6.249 5.999 5.499 4.999 4.499 3.999 3.499 3 2.5 2 1.5 0.9997 0.4998 0.0002939 -0.4992 -0.9991 -1.499 -1.999 -2.499 -2.999 -3.249 
6.249 5.999 5.499 4.999 4.499 3.999 3.499 3 2.5 2 1.5 0.9997 0.4998 0.0002939 -0.4992 -0.9991 -1.499 -1.999 -2.499 -2.999 -3.249 
6.249 5.999 5.499 4.999 4.499 3.999 3.499 3 2.5 2 1.5 0.9997 0.4998 0.0002939 -0.4992 -0.9991 -1.499 -1.999 -2.499 -2.999 -3.249 
6.249 5.999 5.499 4.999 4.499 3.999 3.499 3 2.5 2 1.5 0.9997 0.4998 0.0002939 -0.4992 -0.9991 -1.499 -1.999 -2.499 -2.999 -3.249 
6.249 5.999 5.499 4.999 4.499 3.999 3.499 3 2.5 2 1.5 0.9997 0.4998 0.0002939 -0.4992 -0.9991 -1.499 -1.999 -2.499 -2.999 -3.249 
6.249 5.999 5.499 4.999 4.499 3.999 3.499 3 2.5 2 1.5 0.9997 0.4998 0.0002939 -0.4992 -0.9991 -1.499 -1.999 -2.499 -2.999 -3.249 
6.249 5.999 5.499 4.999 4.499 3.999 3.499 3 2.5 2 1.5 0.9997 0.4998 0.0002939 -0.4992 -0.9991 -1.499 -1.999 -2.499 -2.999 -3.249 
6.249 5.999 5.499 4.999 4.499 3.999 3.499 3 2.5 2 1.5 0.9997 0.4998 0.0002939 -0.4992 -0.9991 -1.499 -1.999 -2.499 -2.999 -3.249 
6.249 5.999 5.499 4.999 4.499 3.999 3.499 3 2.5 2 1.5 0.9997 0.4998 0.0002939 -0.4992 -0.9991 -1.499 -1.999 -2.499 -2.999 -3.249 
6.249 5.999 5.499 4.999 4.499 3.999 3.499 3 2.5 2 1.5 0.9997 0.4998 0.0002939 -0.4992 -0.9991 -1.499 -1.999 -2.499 -2.999 -3.249 
6.249 5.999 5.499 4.999 4.499 3.999 3.499 3 2.5 2 1.5 0.9997 0.4998 0.0002939 -0.4992 -0.9991 -1.499 -1.999 -2.499 -2.999 -3.249 
6.249 5.999 5.499 4.999 4.499 3.999 3.499 3 2.5 2 1.5 0.9997 0.4998 0.0002939 -0.4992 -0.9991 -1.499 -1.999 -2.499 -2.999 -3.249 
6.249 5.999 5.499 4.999 4.499 3.999 3.499 3 2.5 2 1.5 0.9997 0.4998 0.0002939 -0.4992 -0.9991 -1.499 -1.999 -2.499 -2.999 -3.249 
6.249 5.999 5.499 4.999 4.499 3.999 3.499 3 2.5 2 1.5 0.9997 0.4998 0.0002939 -0.4992 -0.9991 -1.499 -1.999 -2.499 -2.999 -3.249 
6.249 5.999 5.499 4.999 4.499 3.999 3.499 3 2.5 2 1.5 0.9997 0.4998 0.0002939 -0.4992 -0.9991 -1.499 -1.999 -2.499 -2.999 -3.249 
6.249 5.999 5.499 4.999 4.499 3.999 3.499 3 2.5 2 1.5 0.9997 0.4998 0.0002939 -0.4992 -0.9991 -1.499 -1.999 -2.499 -2.999 -3.249 
6.249 5.999 5.499 4.999 4.499 3.999 3.499 3 2.5 2 1.5 0.9997 0.4998 0.0002939 -0.4992 -0.9991 -1.499 -1.999 -2.499 -2.999 -3.249 
6.249 5.999 5.499 4.999 4.499 3.999 3.499 3 2.5 2 1.5 0.9997 0.4998 0.0002939 -0.4992 -0.9991 -1.499 -1.999 -2.499 -2.999 -3.249 
6.249 5.999 5.499 4.999 4.499 3.999 3.499 3 2.5 2 1.5 0.9997 0.4998 0.0002939 -0.4992 -0.9991 -1.499 -1.999 -2.499 -2.999 -3.249 
6.249 5.999 5.499 4.999 4.499 3.999 3.499 3 2.5 2 1.5 0.9997 0.4998 0.0002939 -0.4992 -0.9991 -1.499 -1.999 -2.499 -2.999 -3.249 
6.249 5.999 5.499 4.999 4.499 3.999 3.499 3 2.5 2 1.5 0.9997 0.4998 0.0002939 -0.4992 -0.9991 -1.499 -1.999 -2.499 -2.999 -3.249 
6.249 5.999 5.499 4.999 4.499 3.999 3.499 3 2.5 2 1.5 0.9997 0.4998 0.0002939 -0.4992 -0.9991 -1.499 -1.999 -2.499 -2.999 -3.249 
6.249 5.999 5.499 4.999 4.499 3.999 3.499 3 2.5 2 1.5 0.9997 0.4998 0.0002939 -0.4992 -0.9991 -1.499 -1.999 -2.499 -2.999 -3.249 
6.249 5.999 5.499 4.999 4.499 3.999 3.499 3 2.5 2 1.5 0.9997 0.4998 0.0002939 -0.4992 -0.9991 -1.499 -1.999 -2.499 -2.999 -3.249 
6.249 5.999 5.499 4.999 4.499 3.999 3.499 3 2.5 2 1.5 0.9997 0.4998 0.0002939 -0.4992 -0.9991 -1.499 -1.999 -2.499 -2.999 -3.249 
6.249 5.999 5.499 4.999 4.499 3.999 3.499 3 2.5 2 1.5 0.9997 0.4998 0.0002939 -0.4992 -0.9991 -1.499 -1.999 -2.499 -2.999 -3.249 
6.249 5.999 5.499 4.999 4.499 3.999 3.499 3 2.5 2 1.5 0.9997 0.4998 0.0002939 -0.4992 -0.9991 -1.499 -1.999 -2.499 -2.999 -3.249 
6.249 5.999 5.499 4.999 4.499 3.999 3.499 3 2.5 2 1.5 0.9997 0.4998 0.0002939 -0.4992 -0.9991 -1.499 -1.999 -2.499 -2.999 -3.249 
6.249 5.999 5.499 4.999 4.499 3.999 3.499 3 2.5 2 1.5 0.9997 0.4998 0.0002939 -0.4992 -0.9991 -1.499 -1.999 -2.499 -2.999 -3.249 
6.249 5.999 5.499 4.999 4.499 3.999 3.499 3 2.5 2 1.5 0.9997 0.4998 0.0002939 -0.4992 -0.9991 -1.499 -1.999 -2.499 -2.999 -3.249 
6.249 5.999 5.499 4.999 4.499 3.999 3.499 3 2.5 2 1.5 0.9997 0.4998 0.0002939 -0.4992 -0.9991 -1.499 -1.999 -2.499 -2.999 -3.249 
6.249 5.999 5.499 4.999 4.499 3.999 3.499 3 2.5 2 1.5 0.9997 0.4998 0.0002939 -0.4992 -0.9991 -1.499 -1.999 -2.499 -2.999 -3.249 
6.249 5.999 5.499 4.999 4.499 3.999 3.499 3 2.5 2 1.5 0.9997 0.4998 0.0002939 -0.4992 -0.9991 -1.499 -1.999 -2.499 -2.999 -3.249 
6.249 5.999 5.499 4.999 4.499 3.999 3.499 3 2.5 2 1.5 0.9997 0.4998 0.0002939 -0.4992 -0.9991 -1.499 -1.999 -2.499 -2.999 -3.249 
6.249 5.999 5.499 4.999 4.499 3.999 3.499 3 2.5 2 1.5 0.9997 0.4998 0.0002939 -0.4992 -0.9991 -1.499 -1.999 -2.499 -2.999 -3.249 
6.249 5.999 5.499 4.999 4.499 3.999 3.499 3 2.5 2 1.5 0.9997 0.4998 0.0002939 -0.4992 -0.9991 -1.499 -1.999 -2.499 -2.999 -3.249 
6.249 5.999 5.499 4.999 4.499 3.999 3.499 3 2.5 2 1.5 0.9997 0.4998 0.0002939 -0.4992 -0.9991 -1.499 -1.999 -2.499 -2.999 -3.249 
6.249 5.999 5.499 4.999 4.499 3.999 3.499 3 2.5 2 1.5 0.9997 0.4998 0.0002939 -0.4992 -0.9991 -1.499 -1.999 -2.499 -2.999 -3.249 
6.249 5.999 5.499 4.999 4.499 3.999 3.499 3 2.5 2 1.5 0.9997 0.4998 0.0002939 -0.4992 -0.9991 -1.499 -1.999 -2.499 -2.999 -3.249 
6.249 5.999 5.499 4.999 4.499 3.999 3.499 3 2.5 2 1.5 0.9997 0.4998 0.0002939 -0.4992 -0.9991 -1.499 -1.999 -2.499 -2.999 -3.249 
6.249 5.999 5.499 4.999 4.499 3.999 3.499 3 2.5 2 1.5 0.9997 0.4998 0.0002939 -0.4992 -0.9991 -1.499 -1.999 -2.499 -2.999 -3.249 
</DataArray>
<DataArray Name="ne" NumberOfComponents="1" format="ascii" type="Float64">
0.0001135 0.0001136 0.0001139 0.0001141 0.0001145 0.0001149 0.0001157 0.0001166 0.0001176 0.0001187 0.00012 0.0001197 0.0001087 0.001856 0.0001669 0.0001238 0.0001252 0.0001245 0.0001238 0.000123 0.0001235 
0.0001135 0.0001136 0.0001139 0.0001141 0.0001145 0.0001149 0.0001157 0.0001166 0.0001176 0.0001187 0.00012 0.0001197 0.0001087 0.001856 0.0001669 0.0001238 0.0001252 0.0001245 0.0001238 0.000123 0.0001235 
0.0001135 0.0001136 0.0001139 0.0001141 0.0001145 0.0001149 0.0001157 0.0001166 0.0001176 0.0001187 0.00012 0.0001197 0.0001087 0.001856 0.0001669 0.0001238 0.0001252 0.0001245 0.0001238 0.000123 0.0001235 
0.0001135 0.0001136 0.0001139 0.0001141 0.0001145 0.0001149 0.0001157 0.0001166 0.0001176 0.0001187 0.00012 0.0001197 0.0001087 0.001856 0.0001669 0.0001238 0.0001252 0.0001245 0.0001238 0.000123 0.0001235 
0.0001135 0.0001136 0.0001139 0.0001141 0.0001145 0.0001149 0.0001157 0.0001166 0.0001176 0.0001187 0.00012 0.0001197 0.0001087 0.001856 0.0001669 0.0001238 0.0001252 0.0001245 0.0001238 0.000123 0.0001235 
0.0001135 0.0001136 0.0001139 0.0001141 0.0001145 0.0001149 0.0001157 0.0001166 0.0001176 0.0001187 0.00012 0.0001197 0.0001087 0.001856 0.0001669 0.0001238 0.0001252 0.0001245 0.0001238 0.000123 0.0001235 
0.0001135 0.0001136 0.0001139 0.0001141 0.0001145 0.0001149 0.0001157 0.0001166 0.0001176 0.0001187 0.00012 0.0001197 0.0001087 0.001856 0.0001669 0.0001238 0.0001252 0.0001245 0.0001238 0.000123 0.0001235 
0.0001135 0.0001136 0.0001139 0.0001141 0.0001145 0.0001149 0.0001157 0.0001166 0.0001176 0.0001187 0.00012 0.0001197 0.0001087 0.001856 0.0001669 0.0001238 0.0001252 0.0001245 0.0001238 0.000123 0.0001235 
0.0001135 0.0001136 0.0001139 0.0001141 0.0001145 0.0001149 0.0001157 0.0001166 0.0001176 0.0001187 0.00012 0.0001197 0.0001087 0.001856 0.0001669 0.0001238 0.0001252 0.0001245 0.0001238 0.000123 0.0001235 
0.0001135 0.0001136 0.0001139 0.0001141 0.0001145 0.0001149 0.0001157 0.0001166 0.0001176 0.0001187 0.00012 0.0001197 0.0001087 0.001856 0.0001669 0.0001238 0.0001252 0.0001245 0.0001238 0.000123 0.0001235 
0.0001135 0.0001136 0.0001139 0.0001141 0.0001145 0.0001149 0.0001157 0.0001166 0.0001176 0.0001187 0.00012 0.0001197 0.0001087 0.001856 0.0001669 0.0001238 0.0001252 0.0001245 0.0001238 0.000123 0.0001235 
0.0001135 0.0001136 0.0001139 0.0001141 0.0001145 0.0001149 0.0001157 0.0001166 0.0001176 0.0001187 0.00012 0.0001197 0.0001087 0.001856 0.0001669 0.0001238 0.0001252 0.0001245 0.0001238 0.000123 0.0001235 
0.0001135 0.0001136 0.0001139 0.0001141 0.0001145 0.0001149 0.0001157 0.0001166 0.0001176 0.0001187 0.00012 0.0001197 0.0001087 0.001856 0.0001669 0.0001238 0.0001252 0.0001245 0.0001238 0.000123 0.0001235 
0.0001135 0.0001136 0.0001139 0.0001141 0.0001145 0.0001149 0.0001157 0.0001166 0.0001176 0.0001187 0.00012 0.0001197 0.0001087 0.001856 0.0001669 0.0001238 0.0001252 0.0001245 0.0001238 0.000123 0.0001235 
0.0001135 0.0001136 0.0001139 0.0001141 0.0001145 0.0001149 0.0001157 0.0001166 0.0001176 0.0001187 0.00012 0.0001197 0.0001087 0.001856 0.0001669 0.0001238 0.0001252 0.0001245 0.0001238 0.000123 0.0001235 
0.0001135 0.0001136 0.0001139 0.0001141 0.0001145 0.0001149 0.0001157 0.0001166 0.0001176 0.0001187 0.00012 0.0001197 0.0001087 0.001856 0.0001669 0.0001238 0.0001252 0.0001245 0.0001238 0.000123 0.0001235 
0.0001135 0.0001136 0.0001139 0.0001141 0.0001145 0.0001149 0.0001157 0.0001166 0.0001176 0.0001187 0.00012 0.0001197 0.0001087 0.001856 0.0001669 0.0001238 0.0001252 0.0001245 0.0001238 0.000123 0.0001235 
0.0001135 0.0001136 0.0001139 0.0001141 0.0001145 0.0001149 0.0001157 0.0001166 0.0001176 0.0001187 0.00012 0.0001197 0.0001087 0.001856 0.0001669 0.0001238 0.0001252 0.0001245 0.0001238 0.000123 0.0001235 
0.0001135 0.0001136 0.0001139 0.0001141 0.0001145 0.0001149 0.0001157 0.0001166 0.0001176 0.0001187 0.00012 0.0001197 0.0001087 0.001856 0.0001669 0.0001238 0.0001252 0.0001245 0.0001238 0.000123 0.0001235 
0.0001135 0.0001136 0.0001139 0.0001141 0.0001145 0.0001149 0.0001157 0.0001166 0.0001176 0.0001187 0.00012 0.0001197 0.0001087 0.001856 0.0001669 0.0001238 0.0001252 0.0001245 0.0001238 0.000123 0.0001235 
0.0001135 0.0001136 0.0001139 0.0001141 0.0001145 0.0001149 0.0001157 0.0001166 0.0001176 0.0001187 0.00012 0.0001197 0.0001087 0.001856 0.0001669 0.0001238 0.0001252 0.0001245 0.0001238 0.000123 0.0001235 
0.0001135 0.0001136 0.0001139 0.0001141 0.0001145 0.0001149 0.0001157 0.0001166 0.0001176 0.0001187 0.00012 0.0001197 0.0001087 0.001856 0.0001669 0.0001238 0.0001252 0.0001245 0.0001238 0.000123 0.0001235 
0.0001135 0.0001136 0.0001139 0.0001141 0.0001145 0.0001149 0.0001157 0.0001166 0.0001176 0.0001187 0.00012 0.0001197 0.0001087 0.001856 0.0001669 0.0001238 0.0001252 0.0001245 0.0001238 0.000123 0.0001235 
0.0001135 0.0001136 0.0001139 0.0001141 0.0001145 0.0001149 0.0001157 0.0001166 0.0001176 0.0001187 0.00012 0.0001197 0.0001087 0.001856 0.0001669 0.0001238 0.0001252 0.0001245 0.0001238 0.000123 0.0001235 
0.0001135 0.0001136 0.0001139 0.0001141 0.0001145 0.0001149 0.0001157 0.0001166 0.0001176 0.0001187 0.00012 0.0001197 0.0001087 0.001856 0.0001669 0.0001238 0.0001252 0.0001245 0.0001238 0.000123 0.0001235 
0.0001135 0.0001136 0.0001139 0.0001141 0.0001145 0.0001149 0.0001157 0.0001166 0.0001176 0.0001187 0.00012 0.0001197 0.0001087 0.001856 0.0001669 0.0001238 0.0001252 0.0001245 0.0001238 0.000123 0.0001235 
0.0001135 0.0001136 0.0001139 0.0001141 0.0001145 0.0001149 0.0001157 0.0001166 0.0001176 0.0001187 0.00012 0.0001197 0.0001087 0.001856 0.0001669 0.0001238 0.0001252 0.0001245 0.0001238 0.000123 0.0001235 
0.0001135 0.0001136 0.0001139 0.0001141 0.0001145 0.0001149 0.0001157 0.0001166 0.0001176 0.0001187 0.00012 0.0001197 0.0001087 0.001856 0.0001669 0.0001238 0.0001252 0.0001245 0.0001238 0.000123 0.0001235 
0.0001135 0.0001136 0.0001139 0.0001141 0.0001145 0.0001149 0.0001157 0.0001166 0.0001176 0.0001187 0.00012 0.0001197 0.0001087 0.001856 0.0001669 0.0001238 0.0001252 0.0001245 0.0001238 0.000123 0.0001235 
0.0001135 0.0001136 0.0001139 0.0001141 0.0001145 0.0001149 0.0001157 0.0001166 0.0001176 0.0001187 0.00012 0.0001197 0.0001087 0.001856 0.0001669 0.0001238 0.0001252 0.0001245 0.0001238 0.000123 0.0001235 
0.0001135 0.0001136 0.0001139 0.0001141 0.0001145 0.0001149 0.0001157 0.0001166 0.0001176 0.0001187 0.00012 0.0001197 0.0001087 0.001856 0.0001669 0.0001238 0.0001252 0.0001245 0.0001238 0.000123 0.0001235 
0.0001135 0.0001136 0.0001139 0.0001141 0.0001145 0.0001149 0.0001157 0.0001166 0.0001176 0.0001187 0.00012 0.0001197 0.0001087 0.001856 0.0001669 0.0001238 0.0001252 0.0001245 0.0001238 0.000123 0.0001235 
0.0001135 0.0001136 0.0001139 0.0001141 0.0001145 0.0001149 0.0001157 0.0001166 0.0001176 0.0001187 0.00012 0.0001197 0.0001087 0.001856 0.0001669 0.0001238 0.0001252 0.0001245 0.0001238 0.000123 0.0001235 
0.0001135 0.0001136 0.0001139 0.0001141 0.0001145 0.0001149 0.0001157 0.0001166 0.0001176 0.0001187 0.00012 0.0001197 0.0001087 0.001856 0.0001669 0.0001238 0.0001252 0.0001245 0.0001238 0.000123 0.0001235 
0.0001135 0.0001136 0.0001139 0.0001141 0.0001145 0.0001149 0.0001157 0.0001166 0.0001176 0.0001187 0.00012 0.0001197 0.0001087 0.001856 0.0001669 0.0001238 0.0001252 0.0001245 0.0001238 0.000123 0.0001235 
0.0001135 0.0001136 0.0001139 0.0001141 0.0001145 0.0001149 0.0001157 0.0001166 0.0001176 0.0001187 0.00012 0.0001197 0.0001087 0.001856 0.0001669 0.0001238 0.0001252 0.0001245 0.0001238 0.000123 0.0001235 
0.0001135 0.0001136 0.0001139 0.0001141 0.0001145 0.0001149 0.0001157 0.0001166 0.0001176 0.0001187 0.00012 0.0001197 0.0001087 0.001856 0.0001669 0.0001238 0.0001252 0.0001245 0.0001238 0.000123 0.0001235 
0.0001135 0.0001136 0.0001139 0.0001141 0.0001145 0.0001149 0.0001157 0.0001166 0.0001176 0.0001187 0.00012 0.0001197 0.0001087 0.001856 0.0001669 0.0001238 0.0001252 0.0001245 0.0001238 0.000123 0.0001235 
0.0001135 0.0001136 0.0001139 0.0001141 0.0001145 0.0001149 0.0001157 0.0001166 0.0001176 0.0001187 0.00012 0.0001197 0.0001087 0.001856 0.0001669 0.0001238 0.0001252 0.0001245 0.0001238 0.000123 0.0001235 
0.0001135 0.0001136 0.0001139 0.0001141 0.0001145 0.0001149 0.0001157 0.0001166 0.0001176 0.0001187 0.00012 0.0001197 0.0001087 0.001856 0.0001669 0.0001238 0.0001252 0.0001245 0.0001238 0.000123 0.0001235 
0.0001135 0.0001136 0.0001139 0.0001141 0.0001145 0.0001149 0.0001157 0.0001166 0.0001176 0.0001187 0.00012 0.0001197 0.0001087 0.001856 0.0001669 0.0001238 0.0001252 0.0001245 0.0001238 0.000123 0.0001235 
</DataArray>
</PointData>
</Piece>
</ImageData>
</VTKFile>
