<VTKFile type="ImageData">
<ImageData Origin="0 -10 0" Spacing="0.5 0.5 1" WholeExtent="0 20 0 40 0 0">
<Piece Extent="0 20 0 40 0 0">
<PointData>
<DataArray Name="f" NumberOfComponents="1" format="ascii" type="Float64">
0.01315 0.01319 0.01321 0.01323 0.01324 0.01325 0.01325 0.01326 0.01326 0.01326 0.01326 0.01326 0.01325 0.01325 0.01324 0.01324 0.01323 0.01321 0.0132 0.01319 0.01315 
0.007885 0.007917 0.007931 0.007944 0.007951 0.007958 0.007959 0.007962 0.00796 0.00796 0.007956 0.007955 0.00795 0.007948 0.007942 0.00794 0.007932 0.007928 0.007915 0.007913 0.007885 
0.004494 0.004518 0.004527 0.004539 0.004543 0.004551 0.00455 0.004554 0.00455 0.004551 0.004545 0.004545 0.004537 0.004538 0.004529 0.00453 0.00452 0.004521 0.004509 0.00451 0.004494 
0.002431 0.002447 0.002451 0.002461 0.002463 0.002471 0.002469 0.002476 0.002472 0.002477 0.00247 0.002474 0.002465 0.002468 0.002458 0.00246 0.00245 0.002451 0.002441 0.002442 0.002431 
0.00125 0.001257 0.001259 0.001264 0.001265 0.00127 0.001269 0.001274 0.001273 0.001277 0.001274 0.001278 0.001273 0.001276 0.00127 0.001272 0.001265 0.001266 0.001258 0.001258 0.00125 
0.0006131 0.0006154 0.0006164 0.0006173 0.0006178 0.0006184 0.0006188 0.0006196 0.00062 0.0006211 0.0006214 0.0006225 0.0006225 0.0006235 0.0006227 0.0006233 0.0006213 0.0006215 0.0006181 0.000618 0.0006131 
0.0002866 0.0002882 0.0002888 0.000289 0.0002889 0.0002886 0.0002881 0.0002877 0.0002873 0.000287 0.0002869 0.0002869 0.0002871 0.0002874 0.0002876 0.0002881 0.0002881 0.0002884 0.000288 0.000288 0.0002866 
0.0001271 0.0001288 0.0001297 0.0001303 0.0001306 0.0001308 0.0001307 0.0001304 0.0001299 0.0001294 0.0001289 0.0001283 0.0001278 0.0001274 0.0001271 0.0001269 0.0001268 0.0001269 0.000127 0.000127 0.0001271 
5.604e-05 5.655e-05 5.714e-05 5.782e-05 5.855e-05 5.929e-05 5.999e-05 6.061e-05 6.108e-05 6.137e-05 6.145e-05 6.13e-05 6.093e-05 6.039e-05 5.971e-05 5.9e-05 5.823e-05 5.76e-05 5.691e-05 5.655e-05 5.604e-05 
3.423e-05 3.216e-05 3.138e-05 3.1e-05 3.105e-05 3.153e-05 3.242e-05 3.368e-05 3.519e-05 3.683e-05 3.842e-05 3.981e-05 4.083e-05 4.14e-05 4.144e-05 4.103e-05 4.013e-05 3.906e-05 3.749e-05 3.641e-05 3.423e-05 
4.784e-05 4.199e-05 3.858e-05 3.563e-05 3.332e-05 3.178e-05 3.117e-05 3.158e-05 3.305e-05 3.551e-05 3.877e-05 4.252e-05 4.637e-05 4.988e-05 5.266e-05 5.446e-05 5.512e-05 5.482e-05 5.327e-05 5.173e-05 4.784e-05 
0.0001024 9.27e-05 8.538e-05 7.812e-05 7.124e-05 6.509e-05 6.003e-05 5.647e-05 5.478e-05 5.531e-05 5.821e-05 6.343e-05 7.057e-05 7.888e-05 8.741e-05 9.512e-05 0.0001012 0.0001051 0.0001065 0.0001063 0.0001024 
0.0002194 0.0002101 0.0001986 0.0001859 0.0001725 0.0001589 0.0001457 0.0001337 0.0001235 0.0001162 0.0001128 0.000114 0.0001205 0.0001321 0.0001478 0.0001657 0.0001835 0.0001989 0.0002105 0.0002173 0.0002194 
0.0004326 0.0004382 0.0004257 0.0004092 0.0003894 0.0003671 0.0003432 0.0003186 0.0002942 0.0002716 0.0002524 0.0002388 0.0002332 0.0002376 0.0002534 0.0002798 0.0003138 0.0003504 0.0003847 0.0004108 0.0004326 
0.0007881 0.0008398 0.0008358 0.0008225 0.0008013 0.0007735 0.0007401 0.0007021 0.0006607 0.0006174 0.000574 0.0005334 0.0004993 0.0004767 0.0004713 0.0004879 0.0005282 0.000588 0.0006581 0.0007229 0.0007881 
0.001354 0.001503 0.001525 0.001529 0.001519 0.001496 0.00146 0.001414 0.001359 0.001296 0.001226 0.001152 0.001078 0.001009 0.0009535 0.0009241 0.0009337 0.000991 0.001093 0.001215 0.001354 
0.002252 0.002559 0.002631 0.002675 0.002695 0.002693 0.002671 0.002631 0.002573 0.002499 0.002409 0.002306 0.002192 0.00207 0.001948 0.001839 0.001765 0.001756 0.00184 0.00201 0.002252 
0.003704 0.004215 0.004366 0.004473 0.004545 0.004587 0.004599 0.004584 0.004542 0.004473 0.004379 0.004261 0.004119 0.003955 0.003772 0.003579 0.003391 0.003247 0.003213 0.003357 0.003704 
0.006089 0.006799 0.007046 0.007234 0.007378 0.007482 0.007549 0.00758 0.007574 0.007533 0.007456 0.007343 0.007193 0.007008 0.006787 0.006532 0.006249 0.005959 0.005722 0.005691 0.006089 
0.009962 0.01078 0.01112 0.01139 0.01161 0.01179 0.01192 0.01201 0.01206 0.01207 0.01203 0.01194 0.01181 0.01163 0.01139 0.01111 0.01077 0.01039 0.00997 0.009638 0.009962 
0.01598 0.01674 0.01715 0.01749 0.01777 0.01801 0.0182 0.01836 0.01847 0.01853 0.01855 0.01851 0.01841 0.01825 0.01803 0.01775 0.01739 0.01697 0.01647 0.01589 0.01598 
0.02475 0.02532 0.02574 0.02609 0.0264 0.02668 0.02692 0.02713 0.02729 0.02741 0.02748 0.02749 0.02744 0.02732 0.02713 0.02687 0.02652 0.02609 0.02557 0.02495 0.02475 
0.03658 0.037 0.03735 0.03767 0.03798 0.03826 0.03852 0.03875 0.03894 0.0391 0.03921 0.03927 0.03927 0.0392 0.03906 0.03883 0.03852 0.03811 0.0376 0.03698 0.03658 
0.05154 0.05185 0.05213 0.05241 0.05267 0.05293 0.05318 0.0534 0.05361 0.05379 0.05392 0.05402 0.05405 0.05403 0.05393 0.05375 0.05348 0.05311 0.05264 0.05205 0.05154 
0.06935 0.06959 0.0698 0.07002 0.07024 0.07046 0.07067 0.07088 0.07107 0.07125 0.07139 0.0715 0.07156 0.07157 0.07151 0.07137 0.07115 0.07084 0.07042 0.06989 0.06935 
0.08923 0.08942 0.08959 0.08976 0.08993 0.0901 0.09028 0.09045 0.09062 0.09077 0.0909 0.09101 0.09108 0.09111 0.09108 0.09098 0.09081 0.09055 0.0902 0.08974 0.08923 
0.1099 0.1101 0.1102 0.1103 0.1104 0.1106 0.1107 0.1109 0.111 0.1111 0.1112 0.1113 0.1114 0.1114 0.1114 0.1113 0.1112 0.111 0.1107 0.1104 0.1099 
0.1297 0.1298 0.1299 0.13 0.1301 0.1302 0.1303 0.1304 0.1305 0.1306 0.1307 0.1308 0.1308 0.1308 0.1308 0.1308 0.1307 0.1306 0.1303 0.1301 0.1297 
0.1466 0.1467 0.1468 0.1468 0.1469 0.147 0.147 0.1471 0.1472 0.1473 0.1473 0.1474 0.1474 0.1475 0.1474 0.1474 0.1474 0.1472 0.1471 0.1469 0.1466 
0.1589 0.1589 0.1589 0.159 0.159 0.1591 0.1591 0.1592 0.1592 0.1593 0.1593 0.1593 0.1594 0.1594 0.1594 0.1594 0.1593 0.1593 0.1592 0.159 0.1589 
0.165 0.1649 0.1649 0.165 0.165 0.165 0.165 0.1651 0.1651 0.1651 0.1651 0.1652 0.1652 0.1652 0.1652 0.1651 0.1651 0.1651 0.1651 0.165 0.165 
0.1641 0.164 0.164 0.164 0.164 0.164 0.164 0.164 0.164 0.164 0.164 0.164 0.164 0.164 0.164 0.164 0.164 0.164 0.164 0.164 0.1641 
0.1563 0.1562 0.1562 0.1562 0.1562 0.1561 0.1561 0.1561 0.1561 0.1561 0.1561 0.156 0.156 0.156 0.156 0.156 0.156 0.1561 0.1561 0.1562 0.1563 
0.1426 0.1425 0.1425 0.1424 0.1424 0.1423 0.1423 0.1422 0.1422 0.1421 0.1421 0.1421 0.1421 0.1421 0.1421 0.1421 0.1422 0.1422 0.1423 0.1424 0.1426 
0.1245 0.1243 0.1243 0.1242 0.1242 0.1241 0.124 0.1239 0.124 0.1239 0.1239 0.1238 0.1239 0.1238 0.1239 0.1239 0.124 0.124 0.1242 0.1243 0.1245 
0.1039 0.1037 0.1037 0.1035 0.1036 0.1034 0.1034 0.1033 0.1034 0.1032 0.1033 0.1032 0.1033 0.1033 0.1034 0.1034 0.1035 0.1035 0.1036 0.1037 0.1039 
0.08286 0.08267 0.08269 0.08251 0.08256 0.08241 0.08247 0.08235 0.08242 0.08233 0.0824 0.08234 0.0824 0.08237 0.08243 0.08242 0.08249 0.08252 0.08261 0.08268 0.08286 
0.06312 0.06297 0.06299 0.06288 0.06289 0.06282 0.06283 0.06279 0.06279 0.06276 0.06276 0.06274 0.06275 0.06274 0.06275 0.06276 0.06279 0.06283 0.06288 0.06296 0.06312 
0.04595 0.04585 0.04586 0.04578 0.04578 0.04573 0.04571 0.04567 0.04565 0.04562 0.0456 0.04559 0.04558 0.04558 0.04558 0.0456 0.04563 0.04567 0.04573 0.04581 0.04595 
0.03195 0.03184 0.03183 0.03177 0.03173 0.03169 0.03166 0.03163 0.03162 0.0316 0.0316 0.0316 0.03161 0.03162 0.03164 0.03167 0.0317 0.03174 0.03179 0.03185 0.03195 
0.0211 0.021 0.02097 0.02095 0.02093 0.02092 0.02092 0.02092 0.02092 0.02093 0.02094 0.02095 0.02096 0.02098 0.02099 0.021 0.02102 0.02104 0.02105 0.02107 0.0211 
</DataArray>
<DataArray Name="E" NumberOfComponents="1" format="ascii" type="Float64">
1.544 1.54 1.534 1.528 1.523 1.518 1.514 1.51 1.507 1.503 1.5 1.497 1.494 1.49 1.486 1.482 1.478 1.472 1.466 1.459 1.455 
1.544 1.54 1.534 1.528 1.523 1.518 1.514 1.51 1.507 1.503 1.5 1.497 1.494 1.49 1.486 1.482 1.478 1.472 1.466 1.459 1.455 
1.544 1.54 1.534 1.528 1.523 1.518 1.514 1.51 1.507 1.503 1.5 1.497 1.494 1.49 1.486 1.482 1.478 1.472 1.466 1.459 1.455 
1.544 1.54 1.534 1.528 1.523 1.518 1.514 1.51 1.507 1.503 1.5 1.497 1.494 1.49 1.486 1.482 1.478 1.472 1.466 1.459 1.455 
1.544 1.54 1.534 1.528 1.523 1.518 1.514 1.51 1.507 1.503 1.5 1.497 1.494 1.49 1.486 1.482 1.478 1.472 1.466 1.459 1.455 
1.544 1.54 1.534 1.528 1.523 1.518 1.514 1.51 1.507 1.503 1.5 1.497 1.494 1.49 1.486 1.482 1.478 1.472 1.466 1.459 1.455 
1.544 1.54 1.534 1.528 1.523 1.518 1.514 1.51 1.507 1.503 1.5 1.497 1.494 1.49 1.486 1.482 1.478 1.472 1.466 1.459 1.455 
1.544 1.54 1.534 1.528 1.523 1.518 1.514 1.51 1.507 1.503 1.5 1.497 1.494 1.49 1.486 1.482 1.478 1.472 1.466 1.459 1.455 
1.544 1.54 1.534 1.528 1.523 1.518 1.514 1.51 1.507 1.503 1.5 1.497 1.494 1.49 1.486 1.482 1.478 1.472 1.466 1.459 1.455 
1.544 1.54 1.534 1.528 1.523 1.518 1.514 1.51 1.507 1.503 1.5 1.497 1.494 1.49 1.486 1.482 1.478 1.472 1.466 1.459 1.455 
1.544 1.54 1.534 1.528 1.523 1.518 1.514 1.51 1.507 1.503 1.5 1.497 1.494 1.49 1.486 1.482 1.478 1.472 1.466 1.459 1.455 
1.544 1.54 1.534 1.528 1.523 1.518 1.514 1.51 1.507 1.503 1.5 1.497 1.494 1.49 1.486 1.482 1.478 1.472 1.466 1.459 1.455 
1.544 1.54 1.534 1.528 1.523 1.518 1.514 1.51 1.507 1.503 1.5 1.497 1.494 1.49 1.486 1.482 1.478 1.472 1.466 1.459 1.455 
1.544 1.54 1.534 1.528 1.523 1.518 1.514 1.51 1.507 1.503 1.5 1.497 1.494 1.49 1.486 1.482 1.478 1.472 1.466 1.459 1.455 
1.544 1.54 1.534 1.528 1.523 1.518 1.514 1.51 1.507 1.503 1.5 1.497 1.494 1.49 1.486 1.482 1.478 1.472 1.466 1.459 1.455 
1.544 1.54 1.534 1.528 1.523 1.518 1.514 1.51 1.507 1.503 1.5 1.497 1.494 1.49 1.486 1.482 1.478 1.472 1.466 1.459 1.455 
1.544 1.54 1.534 1.528 1.523 1.518 1.514 1.51 1.507 1.503 1.5 1.497 1.494 1.49 1.486 1.482 1.478 1.472 1.466 1.459 1.455 
1.544 1.54 1.534 1.528 1.523 1.518 1.514 1.51 1.507 1.503 1.5 1.497 1.494 1.49 1.486 1.482 1.478 1.472 1.466 1.459 1.455 
1.544 1.54 1.534 1.528 1.523 1.518 1.514 1.51 1.507 1.503 1.5 1.497 1.494 1.49 1.486 1.482 1.478 1.472 1.466 1.459 1.455 
1.544 1.54 1.534 1.528 1.523 1.518 1.514 1.51 1.507 1.503 1.5 1.497 1.494 1.49 1.486 1.482 1.478 1.472 1.466 1.459 1.455 
1.544 1.54 1.534 1.528 1.523 1.518 1.514 1.51 1.507 1.503 1.5 1.497 1.494 1.49 1.486 1.482 1.478 1.472 1.466 1.459 1.455 
1.544 1.54 1.534 1.528 1.523 1.518 1.514 1.51 1.507 1.503 1.5 1.497 1.494 1.49 1.486 1.482 1.478 1.472 1.466 1.459 1.455 
1.544 1.54 1.534 1.528 1.523 1.518 1.514 1.51 1.507 1.503 1.5 1.497 1.494 1.49 1.486 1.482 1.478 1.472 1.466 1.459 1.455 
1.544 1.54 1.534 1.528 1.523 1.518 1.514 1.51 1.507 1.503 1.5 1.497 1.494 1.49 1.486 1.482 1.478 1.472 1.466 1.459 1.455 
1.544 1.54 1.534 1.528 1.523 1.518 1.514 1.51 1.507 1.503 1.5 1.497 1.494 1.49 1.486 1.482 1.478 1.472 1.466 1.459 1.455 
1.544 1.54 1.534 1.528 1.523 1.518 1.514 1.51 1.507 1.503 1.5 1.497 1.494 1.49 1.486 1.482 1.478 1.472 1.466 1.459 1.455 
1.544 1.54 1.534 1.528 1.523 1.518 1.514 1.51 1.507 1.503 1.5 1.497 1.494 1.49 1.486 1.482 1.478 1.472 1.466 1.459 1.455 
1.544 1.54 1.534 1.528 1.523 1.518 1.514 1.51 1.507 1.503 1.5 1.497 1.494 1.49 1.486 1.482 1.478 1.472 1.466 1.459 1.455 
1.544 1.54 1.534 1.528 1.523 1.518 1.514 1.51 1.507 1.503 1.5 1.497 1.494 1.49 1.486 1.482 1.478 1.472 1.466 1.459 1.455 
1.544 1.54 1.534 1.528 1.523 1.518 1.514 1.51 1.507 1.503 1.5 1.497 1.494 1.49 1.486 1.482 1.478 1.472 1.466 1.459 1.455 
1.544 1.54 1.534 1.528 1.523 1.518 1.514 1.51 1.507 1.503 1.5 1.497 1.494 1.49 1.486 1.482 1.478 1.472 1.466 1.459 1.455 
1.544 1.54 1.534 1.528 1.523 1.518 1.514 1.51 1.507 1.503 1.5 1.497 1.494 1.49 1.486 1.482 1.478 1.472 1.466 1.459 1.455 
1.544 1.54 1.534 1.528 1.523 1.518 1.514 1.51 1.507 1.503 1.5 1.497 1.494 1.49 1.486 1.482 1.478 1.472 1.466 1.459 1.455 
1.544 1.54 1.534 1.528 1.523 1.518 1.514 1.51 1.507 1.503 1.5 1.497 1.494 1.49 1.486 1.482 1.478 1.472 1.466 1.459 1.455 
1.544 1.54 1.534 1.528 1.523 1.518 1.514 1.51 1.507 1.503 1.5 1.497 1.494 1.49 1.486 1.482 1.478 1.472 1.466 1.459 1.455 
1.544 1.54 1.534 1.528 1.523 1.518 1.514 1.51 1.507 1.503 1.5 1.497 1.494 1.49 1.486 1.482 1.478 1.472 1.466 1.459 1.455 
1.544 1.54 1.534 1.528 1.523 1.518 1.514 1.51 1.507 1.503 1.5 1.497 1.494 1.49 1.486 1.482 1.478 1.472 1.466 1.459 1.455 
1.544 1.54 1.534 1.528 1.523 1.518 1.514 1.51 1.507 1.503 1.5 1.497 1.494 1.49 1.486 1.482 1.478 1.472 1.466 1.459 1.455 
1.544 1.54 1.534 1.528 1.523 1.518 1.514 1.51 1.507 1.503 1.5 1.497 1.494 1.49 1.486 1.482 1.478 1.472 1.466 1.459 1.455 
1.544 1.54 1.534 1.528 1.523 1.518 1.514 1.51 1.507 1.503 1.5 1.497 1.494 1.49 1.486 1.482 1.478 1.472 1.466 1.459 1.455 
1.544 1.54 1.534 1.528 1.523 1.518 1.514 1.51 1.507 1.503 1.5 1.497 1.494 1.49 1.486 1.482 1.478 1.472 1.466 1.459 1.455 
</DataArray>
<DataArray Name="ne" NumberOfComponents="1" format="ascii" type="Float64">
0.9844 0.9868 0.9879 0.9892 0.9901 0.9911 0.9918 0.9926 0.993 0.9935 0.9936 0.9937 0.9934 0.993 0.9922 0.9912 0.9899 0.9884 0.9866 0.9848 0.984 
0.9844 0.9868 0.9879 0.9892 0.9901 0.9911 0.9918 0.9926 0.993 0.9935 0.9936 0.9937 0.9934 0.993 0.9922 0.9912 0.9899 0.9884 0.9866 0.9848 0.984 
0.9844 0.9868 0.9879 0.9892 0.9901 0.9911 0.9918 0.9926 0.993 0.9935 0.9936 0.9937 0.9934 0.993 0.9922 0.9912 0.9899 0.9884 0.9866 0.9848 0.984 
0.9844 0.9868 0.9879 0.9892 0.9901 0.9911 0.9918 0.9926 0.993 0.9935 0.9936 0.9937 0.9934 0.993 0.9922 0.9912 0.9899 0.9884 0.9866 0.9848 0.984 
0.9844 0.9868 0.9879 0.9892 0.9901 0.9911 0.9918 0.9926 0.993 0.9935 0.9936 0.9937 0.9934 0.993 0.9922 0.9912 0.9899 0.9884 0.9866 0.9848 0.984 
0.9844 0.9868 0.9879 0.9892 0.9901 0.9911 0.9918 0.9926 0.993 0.9935 0.9936 0.9937 0.9934 0.993 0.9922 0.9912 0.9899 0.9884 0.9866 0.9848 0.984 
0.9844 0.9868 0.9879 0.9892 0.9901 0.9911 0.9918 0.9926 0.993 0.9935 0.9936 0.9937 0.9934 0.993 0.9922 0.9912 0.9899 0.9884 0.9866 0.9848 0.984 
0.9844 0.9868 0.9879 0.9892 0.9901 0.9911 0.9918 0.9926 0.993 0.9935 0.9936 0.9937 0.9934 0.993 0.9922 0.9912 0.9899 0.9884 0.9866 0.9848 0.984 
0.9844 0.9868 0.9879 0.9892 0.9901 0.9911 0.9918 0.9926 0.993 0.9935 0.9936 0.9937 0.9934 0.993 0.9922 0.9912 0.9899 0.9884 0.9866 0.9848 0.984 
0.9844 0.9868 0.9879 0.9892 0.9901 0.9911 0.9918 0.9926 0.993 0.9935 0.9936 0.9937 0.9934 0.993 0.9922 0.9912 0.9899 0.9884 0.9866 0.9848 0.984 
0.9844 0.9868 0.9879 0.9892 0.9901 0.9911 0.9918 0.9926 0.993 0.9935 0.9936 0.9937 0.9934 0.993 0.9922 0.9912 0.9899 0.9884 0.9866 0.9848 0.984 
0.9844 0.9868 0.9879 0.9892 0.9901 0.9911 0.9918 0.9926 0.993 0.9935 0.9936 0.9937 0.9934 0.993 0.9922 0.9912 0.9899 0.9884 0.9866 0.9848 0.984 
0.9844 0.9868 0.9879 0.9892 0.9901 0.9911 0.9918 0.9926 0.993 0.9935 0.9936 0.9937 0.9934 0.993 0.9922 0.9912 0.9899 0.9884 0.9866 0.9848 0.984 
0.9844 0.9868 0.9879 0.9892 0.9901 0.9911 0.9918 0.9926 0.993 0.9935 0.9936 0.9937 0.9934 0.993 0.9922 0.9912 0.9899 0.9884 0.9866 0.9848 0.984 
0.9844 0.9868 0.9879 0.9892 0.9901 0.9911 0.9918 0.9926 0.993 0.9935 0.9936 0.9937 0.9934 0.993 0.9922 0.9912 0.9899 0.9884 0.9866 0.9848 0.984 
0.9844 0.9868 0.9879 0.9892 0.9901 0.9911 0.9918 0.9926 0.993 0.9935 0.9936 0.9937 0.9934 0.993 0.9922 0.9912 0.9899 0.9884 0.9866 0.9848 0.984 
0.9844 0.9868 0.9879 0.9892 0.9901 0.9911 0.9918 0.9926 0.993 0.9935 0.9936 0.9937 0.9934 0.993 0.9922 0.9912 0.9899 0.9884 0.9866 0.9848 0.984 
0.9844 0.9868 0.9879 0.9892 0.9901 0.9911 0.9918 0.9926 0.993 0.9935 0.9936 0.9937 0.9934 0.993 0.9922 0.9912 0.9899 0.9884 0.9866 0.9848 0.984 
0.9844 0.9868 0.9879 0.9892 0.9901 0.9911 0.9918 0.9926 0.993 0.9935 0.9936 0.9937 0.9934 0.993 0.9922 0.9912 0.9899 0.9884 0.9866 0.9848 0.984 
0.9844 0.9868 0.9879 0.9892 0.9901 0.9911 0.9918 0.9926 0.993 0.9935 0.9936 0.9937 0.9934 0.993 0.9922 0.9912 0.9899 0.9884 0.9866 0.9848 0.984 
0.9844 0.9868 0.9879 0.9892 0.9901 0.9911 0.9918 0.9926 0.993 0.9935 0.9936 0.9937 0.9934 0.993 0.9922 0.9912 0.9899 0.9884 0.9866 0.9848 0.984 
0.9844 0.9868 0.9879 0.9892 0.9901 0.9911 0.9918 0.9926 0.993 0.9935 0.9936 0.9937 0.9934 0.993 0.9922 0.9912 0.9899 0.9884 0.9866 0.9848 0.984 
0.9844 0.9868 0.9879 0.9892 0.9901 0.9911 0.9918 0.9926 0.993 0.9935 0.9936 0.9937 0.9934 0.993 0.9922 0.9912 0.9899 0.9884 0.9866 0.9848 0.984 
0.9844 0.9868 0.9879 0.9892 0.9901 0.9911 0.9918 0.9926 0.993 0.9935 0.9936 0.9937 0.9934 0.993 0.9922 0.9912 0.9899 0.9884 0.9866 0.9848 0.984 
0.9844 0.9868 0.9879 0.9892 0.9901 0.9911 0.9918 0.9926 0.993 0.9935 0.9936 0.9937 0.9934 0.993 0.9922 0.9912 0.9899 0.9884 0.9866 0.9848 0.984 
0.9844 0.9868 0.9879 0.9892 0.9901 0.9911 0.9918 0.9926 0.993 0.9935 0.9936 0.9937 0.9934 0.993 0.9922 0.9912 0.9899 0.9884 0.9866 0.9848 0.984 
0.9844 0.9868 0.9879 0.9892 0.9901 0.9911 0.9918 0.9926 0.993 0.9935 0.9936 0.9937 0.9934 0.993 0.9922 0.9912 0.9899 0.9884 0.9866 0.9848 0.984 
0.9844 0.9868 0.9879 0.9892 0.9901 0.9911 0.9918 0.9926 0.993 0.9935 0.9936 0.9937 0.9934 0.993 0.9922 0.9912 0.9899 0.9884 0.9866 0.9848 0.984 
0.9844 0.9868 0.9879 0.9892 0.9901 0.9911 0.9918 0.9926 0.993 0.9935 0.9936 0.9937 0.9934 0.993 0.9922 0.9912 0.9899 0.9884 0.9866 0.9848 0.984 
0.9844 0.9868 0.9879 0.9892 0.9901 0.9911 0.9918 0.9926 0.993 0.9935 0.9936 0.9937 0.9934 0.993 0.9922 0.9912 0.9899 0.9884 0.9866 0.9848 0.984 
0.9844 0.9868 0.9879 0.9892 0.9901 0.9911 0.9918 0.9926 0.993 0.9935 0.9936 0.9937 0.9934 0.993 0.9922 0.9912 0.9899 0.9884 0.9866 0.9848 0.984 
0.9844 0.9868 0.9879 0.9892 0.9901 0.9911 0.9918 0.9926 0.993 0.9935 0.9936 0.9937 0.9934 0.993 0.9922 0.9912 0.9899 0.9884 0.9866 0.9848 0.984 
0.9844 0.9868 0.9879 0.9892 0.9901 0.9911 0.9918 0.9926 0.993 0.9935 0.9936 0.9937 0.9934 0.993 0.9922 0.9912 0.9899 0.9884 0.9866 0.9848 0.984 
0.9844 0.9868 0.9879 0.9892 0.9901 0.9911 0.9918 0.9926 0.993 0.9935 0.9936 0.9937 0.9934 0.993 0.9922 0.9912 0.9899 0.9884 0.9866 0.9848 0.984 
0.9844 0.9868 0.9879 0.9892 0.9901 0.9911 0.9918 0.9926 0.993 0.9935 0.9936 0.9937 0.9934 0.993 0.9922 0.9912 0.9899 0.9884 0.9866 0.9848 0.984 
0.9844 0.9868 0.9879 0.9892 0.9901 0.9911 0.9918 0.9926 0.993 0.9935 0.9936 0.9937 0.9934 0.993 0.9922 0.9912 0.9899 0.9884 0.9866 0.9848 0.984 
0.9844 0.9868 0.9879 0.9892 0.9901 0.9911 0.9918 0.9926 0.993 0.9935 0.9936 0.9937 0.9934 0.993 0.9922 0.9912 0.9899 0.9884 0.9866 0.9848 0.984 
0.9844 0.9868 0.9879 0.9892 0.9901 0.9911 0.9918 0.9926 0.993 0.9935 0.9936 0.9937 0.9934 0.993 0.9922 0.9912 0.9899 0.9884 0.9866 0.9848 0.984 
0.9844 0.9868 0.9879 0.9892 0.9901 0.9911 0.9918 0.9926 0.993 0.9935 0.9936 0.9937 0.9934 0.993 0.9922 0.9912 0.9899 0.9884 0.9866 0.9848 0.984 
0.9844 0.9868 0.9879 0.9892 0.9901 0.9911 0.9918 0.9926 0.993 0.9935 0.9936 0.9937 0.9934 0.993 0.9922 0.9912 0.9899 0.9884 0.9866 0.9848 0.984 
0.9844 0.9868 0.9879 0.9892 0.9901 0.9911 0.9918 0.9926 0.993 0.9935 0.9936 0.9937 0.9934 0.993 0.9922 0.9912 0.9899 0.9884 0.9866 0.9848 0.984 
</DataArray>
</PointData>
</Piece>
</ImageData>
</VTKFile>
