<VTKFile type="ImageData">
<ImageData Origin="0 -10 0" Spacing="0.5 0.5 1" WholeExtent="0 20 0 40 0 0">
<Piece Extent="0 20 0 40 0 0">
<PointData>
<DataArray Name="f" NumberOfComponents="1" format="ascii" type="Float64">
0.003284 0.003287 0.003289 0.00329 0.003291 0.003292 0.003293 0.003293 0.003294 0.003294 0.003294 0.003294 0.003294 0.003293 0.003293 0.003292 0.003291 0.00329 0.003288 0.003288 0.003284 
0.001785 0.001787 0.001787 0.001788 0.001788 0.001789 0.001789 0.00179 0.00179 0.001791 0.001791 0.001791 0.001791 0.001791 0.001791 0.001791 0.00179 0.00179 0.001788 0.001788 0.001785 
0.0009264 0.0009272 0.0009271 0.0009275 0.0009273 0.0009276 0.0009273 0.0009276 0.0009274 0.0009278 0.0009278 0.0009282 0.0009283 0.0009287 0.0009286 0.0009289 0.0009286 0.0009287 0.0009279 0.000928 0.0009264 
0.0004594 0.0004602 0.00046 0.0004604 0.0004599 0.0004602 0.0004596 0.0004598 0.0004592 0.0004595 0.000459 0.0004594 0.0004591 0.0004595 0.0004594 0.0004597 0.0004597 0.00046 0.0004598 0.0004599 0.0004594 
0.0002205 0.0002211 0.0002211 0.0002214 0.0002211 0.0002212 0.0002207 0.0002208 0.0002202 0.0002202 0.0002197 0.0002198 0.0002195 0.0002196 0.0002195 0.0002197 0.0002199 0.00022 0.0002203 0.0002203 0.0002205 
0.0001092 0.0001101 0.0001105 0.0001107 0.0001107 0.0001106 0.0001103 0.0001099 0.0001093 0.0001088 0.0001082 0.0001078 0.0001073 0.0001071 0.000107 0.000107 0.0001073 0.0001074 0.0001081 0.0001082 0.0001092 
6.773e-05 6.983e-05 7.119e-05 7.238e-05 7.328e-05 7.381e-05 7.394e-05 7.365e-05 7.298e-05 7.202e-05 7.083e-05 6.956e-05 6.827e-05 6.711e-05 6.613e-05 6.543e-05 6.512e-05 6.499e-05 6.567e-05 6.588e-05 6.773e-05 
6.937e-05 7.188e-05 7.448e-05 7.747e-05 8.056e-05 8.343e-05 8.581e-05 8.747e-05 8.824e-05 8.809e-05 8.704e-05 8.525e-05 8.284e-05 8.016e-05 7.724e-05 7.46e-05 7.206e-05 7.03e-05 6.9e-05 6.849e-05 6.937e-05 
0.0001165 0.0001143 0.0001157 0.000119 0.0001239 0.0001298 0.0001363 0.0001428 0.0001484 0.0001527 0.0001553 0.000156 0.0001547 0.0001518 0.0001474 0.0001423 0.0001362 0.000131 0.0001248 0.0001215 0.0001165 
0.0002444 0.0002284 0.0002225 0.0002199 0.0002211 0.0002261 0.0002344 0.0002456 0.0002583 0.0002715 0.0002835 0.0002933 0.0002998 0.0003026 0.0003015 0.0002972 0.0002896 0.0002809 0.0002688 0.0002606 0.0002444 
0.0005226 0.0004861 0.0004655 0.0004479 0.000435 0.0004278 0.0004274 0.0004343 0.0004481 0.0004679 0.0004916 0.0005167 0.0005404 0.00056 0.0005738 0.0005808 0.0005805 0.0005748 0.0005616 0.0005497 0.0005226 
0.001049 0.000998 0.0009607 0.0009227 0.0008864 0.0008542 0.0008288 0.0008129 0.0008088 0.0008179 0.0008405 0.0008746 0.0009169 0.0009623 0.001005 0.001041 0.001067 0.00108 0.001081 0.001075 0.001049 
0.00194 0.001903 0.001859 0.001806 0.001748 0.001687 0.001627 0.001572 0.001526 0.001496 0.001486 0.001499 0.001536 0.001595 0.001668 0.001746 0.001818 0.001877 0.001918 0.00194 0.00194 
0.003337 0.003365 0.003334 0.003286 0.003224 0.003148 0.003062 0.002969 0.002875 0.002785 0.00271 0.002659 0.002641 0.002664 0.002729 0.00283 0.002953 0.003078 0.003189 0.003272 0.003337 
0.005423 0.00558 0.005592 0.005578 0.005539 0.005477 0.005392 0.005287 0.005163 0.005027 0.004885 0.00475 0.004635 0.004559 0.00454 0.004591 0.004711 0.004883 0.005077 0.005252 0.005423 
0.008467 0.008813 0.008894 0.008941 0.008956 0.00894 0.008891 0.00881 0.008698 0.008554 0.008383 0.00819 0.007987 0.007792 0.007632 0.00754 0.007548 0.007673 0.0079 0.008166 0.008467 
0.01287 0.01343 0.01359 0.01371 0.0138 0.01385 0.01387 0.01385 0.01378 0.01368 0.01353 0.01334 0.01311 0.01284 0.01256 0.0123 0.01211 0.01205 0.01217 0.01246 0.01287 
0.01916 0.01988 0.02011 0.02031 0.02047 0.02059 0.02068 0.02074 0.02075 0.02071 0.02063 0.02049 0.0203 0.02005 0.01974 0.01939 0.01903 0.01872 0.01859 0.01872 0.01916 
0.02792 0.02868 0.02895 0.02918 0.02939 0.02957 0.02972 0.02984 0.02993 0.02997 0.02997 0.02991 0.0298 0.02962 0.02936 0.02903 0.02863 0.02819 0.02778 0.02761 0.02792 
0.03959 0.04023 0.04049 0.04072 0.04093 0.04113 0.04131 0.04147 0.04161 0.04172 0.04178 0.04181 0.04178 0.04169 0.04152 0.04128 0.04095 0.04052 0.04002 0.03954 0.03959 
0.05425 0.05466 0.05486 0.05505 0.05523 0.0554 0.05557 0.05573 0.05589 0.05602 0.05613 0.05621 0.05625 0.05624 0.05616 0.05602 0.05579 0.05546 0.05503 0.05449 0.05425 
0.07147 0.07164 0.07177 0.07189 0.07201 0.07213 0.07226 0.0724 0.07253 0.07266 0.07277 0.07287 0.07295 0.07299 0.07298 0.07292 0.07278 0.07256 0.07225 0.07184 0.07147 
0.09028 0.09034 0.0904 0.09046 0.09052 0.09059 0.09067 0.09076 0.09085 0.09095 0.09105 0.09114 0.09122 0.09128 0.09131 0.0913 0.09124 0.09111 0.09091 0.09062 0.09028 
0.1094 0.1095 0.1095 0.1095 0.1095 0.1096 0.1096 0.1096 0.1097 0.1098 0.1098 0.1099 0.11 0.11 0.1101 0.1101 0.1101 0.11 0.1099 0.1097 0.1094 
0.1274 0.1275 0.1275 0.1275 0.1275 0.1275 0.1275 0.1275 0.1275 0.1276 0.1276 0.1276 0.1277 0.1277 0.1278 0.1278 0.1278 0.1278 0.1277 0.1276 0.1274 
0.1427 0.1427 0.1427 0.1427 0.1427 0.1427 0.1427 0.1427 0.1427 0.1427 0.1427 0.1427 0.1427 0.1428 0.1428 0.1428 0.1428 0.1428 0.1428 0.1427 0.1427 
0.1535 0.1535 0.1535 0.1535 0.1535 0.1535 0.1535 0.1535 0.1535 0.1535 0.1535 0.1535 0.1535 0.1535 0.1535 0.1536 0.1536 0.1536 0.1536 0.1536 0.1535 
0.1589 0.1589 0.1589 0.1588 0.1588 0.1588 0.1588 0.1588 0.1588 0.1587 0.1587 0.1587 0.1587 0.1588 0.1588 0.1588 0.1588 0.1588 0.1589 0.1589 0.1589 
0.158 0.158 0.158 0.1579 0.1579 0.1579 0.1579 0.1579 0.1578 0.1578 0.1578 0.1578 0.1578 0.1578 0.1578 0.1579 0.1579 0.1579 0.1579 0.158 0.158 
0.151 0.1509 0.1509 0.1509 0.1509 0.1508 0.1508 0.1508 0.1508 0.1508 0.1508 0.1508 0.1508 0.1508 0.1508 0.1508 0.1508 0.1509 0.1509 0.1509 0.151 
0.1386 0.1385 0.1385 0.1385 0.1385 0.1384 0.1384 0.1384 0.1384 0.1384 0.1384 0.1384 0.1384 0.1384 0.1384 0.1384 0.1384 0.1384 0.1385 0.1385 0.1386 
0.1221 0.1221 0.122 0.122 0.122 0.122 0.122 0.122 0.1219 0.1219 0.1219 0.1219 0.1219 0.1219 0.1219 0.1219 0.122 0.122 0.122 0.122 0.1221 
0.1033 0.1032 0.1032 0.1032 0.1032 0.1032 0.1032 0.1031 0.1031 0.1031 0.1031 0.1031 0.1031 0.1031 0.1031 0.1031 0.1031 0.1031 0.1032 0.1032 0.1033 
0.08378 0.08375 0.08375 0.08373 0.08372 0.08371 0.0837 0.08369 0.08368 0.08367 0.08366 0.08365 0.08365 0.08364 0.08365 0.08365 0.08366 0.08367 0.0837 0.08372 0.08378 
0.06518 0.06516 0.06516 0.06513 0.06513 0.06511 0.06511 0.06509 0.06509 0.06508 0.06508 0.06506 0.06506 0.06505 0.06506 0.06505 0.06507 0.06508 0.06511 0.06513 0.06518 
0.0486 0.04857 0.04858 0.04855 0.04856 0.04853 0.04854 0.04851 0.04852 0.0485 0.04851 0.04849 0.0485 0.04848 0.0485 0.04849 0.04851 0.04851 0.04854 0.04855 0.0486 
0.0347 0.03468 0.03468 0.03466 0.03466 0.03464 0.03465 0.03463 0.03464 0.03462 0.03463 0.03462 0.03463 0.03461 0.03463 0.03462 0.03463 0.03463 0.03465 0.03466 0.0347 
0.02371 0.02369 0.0237 0.02368 0.02369 0.02368 0.02368 0.02367 0.02367 0.02367 0.02367 0.02366 0.02366 0.02366 0.02366 0.02366 0.02366 0.02367 0.02368 0.02369 0.02371 
0.0155 0.01549 0.01549 0.01549 0.01549 0.01548 0.01548 0.01548 0.01547 0.01547 0.01547 0.01546 0.01546 0.01546 0.01546 0.01546 0.01547 0.01547 0.01548 0.01548 0.0155 
0.009693 0.009685 0.009685 0.009679 0.009676 0.009673 0.00967 0.009667 0.009665 0.009663 0.009661 0.009661 0.00966 0.009661 0.009662 0.009664 0.009667 0.009671 0.009676 0.009682 0.009693 
0.005784 0.005777 0.005775 0.005773 0.005771 0.00577 0.00577 0.005769 0.00577 0.00577 0.00577 0.005771 0.005772 0.005773 0.005774 0.005775 0.005776 0.005777 0.005779 0.005781 0.005784 
</DataArray>
<DataArray Name="E" NumberOfComponents="1" format="ascii" type="Float64">
1.51 1.509 1.507 1.506 1.505 1.504 1.503 1.503 1.502 1.502 1.501 1.5 1.5 1.499 1.498 1.496 1.495 1.493 1.491 1.488 1.487 
1.51 1.509 1.507 1.506 1.505 1.504 1.503 1.503 1.502 1.502 1.501 1.5 1.5 1.499 1.498 1.496 1.495 1.493 1.491 1.488 1.487 
1.51 1.509 1.507 1.506 1.505 1.504 1.503 1.503 1.502 1.502 1.501 1.5 1.5 1.499 1.498 1.496 1.495 1.493 1.491 1.488 1.487 
1.51 1.509 1.507 1.506 1.505 1.504 1.503 1.503 1.502 1.502 1.501 1.5 1.5 1.499 1.498 1.496 1.495 1.493 1.491 1.488 1.487 
1.51 1.509 1.507 1.506 1.505 1.504 1.503 1.503 1.502 1.502 1.501 1.5 1.5 1.499 1.498 1.496 1.495 1.493 1.491 1.488 1.487 
1.51 1.509 1.507 1.506 1.505 1.504 1.503 1.503 1.502 1.502 1.501 1.5 1.5 1.499 1.498 1.496 1.495 1.493 1.491 1.488 1.487 
1.51 1.509 1.507 1.506 1.505 1.504 1.503 1.503 1.502 1.502 1.501 1.5 1.5 1.499 1.498 1.496 1.495 1.493 1.491 1.488 1.487 
1.51 1.509 1.507 1.506 1.505 1.504 1.503 1.503 1.502 1.502 1.501 1.5 1.5 1.499 1.498 1.496 1.495 1.493 1.491 1.488 1.487 
1.51 1.509 1.507 1.506 1.505 1.504 1.503 1.503 1.502 1.502 1.501 1.5 1.5 1.499 1.498 1.496 1.495 1.493 1.491 1.488 1.487 
1.51 1.509 1.507 1.506 1.505 1.504 1.503 1.503 1.502 1.502 1.501 1.5 1.5 1.499 1.498 1.496 1.495 1.493 1.491 1.488 1.487 
1.51 1.509 1.507 1.506 1.505 1.504 1.503 1.503 1.502 1.502 1.501 1.5 1.5 1.499 1.498 1.496 1.495 1.493 1.491 1.488 1.487 
1.51 1.509 1.507 1.506 1.505 1.504 1.503 1.503 1.502 1.502 1.501 1.5 1.5 1.499 1.498 1.496 1.495 1.493 1.491 1.488 1.487 
1.51 1.509 1.507 1.506 1.505 1.504 1.503 1.503 1.502 1.502 1.501 1.5 1.5 1.499 1.498 1.496 1.495 1.493 1.491 1.488 1.487 
1.51 1.509 1.507 1.506 1.505 1.504 1.503 1.503 1.502 1.502 1.501 1.5 1.5 1.499 1.498 1.496 1.495 1.493 1.491 1.488 1.487 
1.51 1.509 1.507 1.506 1.505 1.504 1.503 1.503 1.502 1.502 1.501 1.5 1.5 1.499 1.498 1.496 1.495 1.493 1.491 1.488 1.487 
1.51 1.509 1.507 1.506 1.505 1.504 1.503 1.503 1.502 1.502 1.501 1.5 1.5 1.499 1.498 1.496 1.495 1.493 1.491 1.488 1.487 
1.51 1.509 1.507 1.506 1.505 1.504 1.503 1.503 1.502 1.502 1.501 1.5 1.5 1.499 1.498 1.496 1.495 1.493 1.491 1.488 1.487 
1.51 1.509 1.507 1.506 1.505 1.504 1.503 1.503 1.502 1.502 1.501 1.5 1.5 1.499 1.498 1.496 1.495 1.493 1.491 1.488 1.487 
1.51 1.509 1.507 1.506 1.505 1.504 1.503 1.503 1.502 1.502 1.501 1.5 1.5 1.499 1.498 1.496 1.495 1.493 1.491 1.488 1.487 
1.51 1.509 1.507 1.506 1.505 1.504 1.503 1.503 1.502 1.502 1.501 1.5 1.5 1.499 1.498 1.496 1.495 1.493 1.491 1.488 1.487 
1.51 1.509 1.507 1.506 1.505 1.504 1.503 1.503 1.502 1.502 1.501 1.5 1.5 1.499 1.498 1.496 1.495 1.493 1.491 1.488 1.487 
1.51 1.509 1.507 1.506 1.505 1.504 1.503 1.503 1.502 1.502 1.501 1.5 1.5 1.499 1.498 1.496 1.495 1.493 1.491 1.488 1.487 
1.51 1.509 1.507 1.506 1.505 1.504 1.503 1.503 1.502 1.502 1.501 1.5 1.5 1.499 1.498 1.496 1.495 1.493 1.491 1.488 1.487 
1.51 1.509 1.507 1.506 1.505 1.504 1.503 1.503 1.502 1.502 1.501 1.5 1.5 1.499 1.498 1.496 1.495 1.493 1.491 1.488 1.487 
1.51 1.509 1.507 1.506 1.505 1.504 1.503 1.503 1.502 1.502 1.501 1.5 1.5 1.499 1.498 1.496 1.495 1.493 1.491 1.488 1.487 
1.51 1.509 1.507 1.506 1.505 1.504 1.503 1.503 1.502 1.502 1.501 1.5 1.5 1.499 1.498 1.496 1.495 1.493 1.491 1.488 1.487 
1.51 1.509 1.507 1.506 1.505 1.504 1.503 1.503 1.502 1.502 1.501 1.5 1.5 1.499 1.498 1.496 1.495 1.493 1.491 1.488 1.487 
1.51 1.509 1.507 1.506 1.505 1.504 1.503 1.503 1.502 1.502 1.501 1.5 1.5 1.499 1.498 1.496 1.495 1.493 1.491 1.488 1.487 
1.51 1.509 1.507 1.506 1.505 1.504 1.503 1.503 1.502 1.502 1.501 1.5 1.5 1.499 1.498 1.496 1.495 1.493 1.491 1.488 1.487 
1.51 1.509 1.507 1.506 1.505 1.504 1.503 1.503 1.502 1.502 1.501 1.5 1.5 1.499 1.498 1.496 1.495 1.493 1.491 1.488 1.487 
1.51 1.509 1.507 1.506 1.505 1.504 1.503 1.503 1.502 1.502 1.501 1.5 1.5 1.499 1.498 1.496 1.495 1.493 1.491 1.488 1.487 
1.51 1.509 1.507 1.506 1.505 1.504 1.503 1.503 1.502 1.502 1.501 1.5 1.5 1.499 1.498 1.496 1.495 1.493 1.491 1.488 1.487 
1.51 1.509 1.507 1.506 1.505 1.504 1.503 1.503 1.502 1.502 1.501 1.5 1.5 1.499 1.498 1.496 1.495 1.493 1.491 1.488 1.487 
1.51 1.509 1.507 1.506 1.505 1.504 1.503 1.503 1.502 1.502 1.501 1.5 1.5 1.499 1.498 1.496 1.495 1.493 1.491 1.488 1.487 
1.51 1.509 1.507 1.506 1.505 1.504 1.503 1.503 1.502 1.502 1.501 1.5 1.5 1.499 1.498 1.496 1.495 1.493 1.491 1.488 1.487 
1.51 1.509 1.507 1.506 1.505 1.504 1.503 1.503 1.502 1.502 1.501 1.5 1.5 1.499 1.498 1.496 1.495 1.493 1.491 1.488 1.487 
1.51 1.509 1.507 1.506 1.505 1.504 1.503 1.503 1.502 1.502 1.501 1.5 1.5 1.499 1.498 1.496 1.495 1.493 1.491 1.488 1.487 
1.51 1.509 1.507 1.506 1.505 1.504 1.503 1.503 1.502 1.502 1.501 1.5 1.5 1.499 1.498 1.496 1.495 1.493 1.491 1.488 1.487 
1.51 1.509 1.507 1.506 1.505 1.504 1.503 1.503 1.502 1.502 1.501 1.5 1.5 1.499 1.498 1.496 1.495 1.493 1.491 1.488 1.487 
1.51 1.509 1.507 1.506 1.505 1.504 1.503 1.503 1.502 1.502 1.501 1.5 1.5 1.499 1.498 1.496 1.495 1.493 1.491 1.488 1.487 
1.51 1.509 1.507 1.506 1.505 1.504 1.503 1.503 1.502 1.502 1.501 1.5 1.5 1.499 1.498 1.496 1.495 1.493 1.491 1.488 1.487 
</DataArray>
<DataArray Name="ne" NumberOfComponents="1" format="ascii" type="Float64">
0.9949 0.9966 0.9972 0.9977 0.998 0.9984 0.9985 0.9987 0.9988 0.9989 0.9988 0.9987 0.9984 0.9981 0.9977 0.9972 0.9965 0.9958 0.9951 0.9945 0.9946 
0.9949 0.9966 0.9972 0.9977 0.998 0.9984 0.9985 0.9987 0.9988 0.9989 0.9988 0.9987 0.9984 0.9981 0.9977 0.9972 0.9965 0.9958 0.9951 0.9945 0.9946 
0.9949 0.9966 0.9972 0.9977 0.998 0.9984 0.9985 0.9987 0.9988 0.9989 0.9988 0.9987 0.9984 0.9981 0.9977 0.9972 0.9965 0.9958 0.9951 0.9945 0.9946 
0.9949 0.9966 0.9972 0.9977 0.998 0.9984 0.9985 0.9987 0.9988 0.9989 0.9988 0.9987 0.9984 0.9981 0.9977 0.9972 0.9965 0.9958 0.9951 0.9945 0.9946 
0.9949 0.9966 0.9972 0.9977 0.998 0.9984 0.9985 0.9987 0.9988 0.9989 0.9988 0.9987 0.9984 0.9981 0.9977 0.9972 0.9965 0.9958 0.9951 0.9945 0.9946 
0.9949 0.9966 0.9972 0.9977 0.998 0.9984 0.9985 0.9987 0.9988 0.9989 0.9988 0.9987 0.9984 0.9981 0.9977 0.9972 0.9965 0.9958 0.9951 0.9945 0.9946 
0.9949 0.9966 0.9972 0.9977 0.998 0.9984 0.9985 0.9987 0.9988 0.9989 0.9988 0.9987 0.9984 0.9981 0.9977 0.9972 0.9965 0.9958 0.9951 0.9945 0.9946 
0.9949 0.9966 0.9972 0.9977 0.998 0.9984 0.9985 0.9987 0.9988 0.9989 0.9988 0.9987 0.9984 0.9981 0.9977 0.9972 0.9965 0.9958 0.9951 0.9945 0.9946 
0.9949 0.9966 0.9972 0.9977 0.998 0.9984 0.9985 0.9987 0.9988 0.9989 0.9988 0.9987 0.9984 0.9981 0.9977 0.9972 0.9965 0.9958 0.9951 0.9945 0.9946 
0.9949 0.9966 0.9972 0.9977 0.998 0.9984 0.9985 0.9987 0.9988 0.9989 0.9988 0.9987 0.9984 0.9981 0.9977 0.9972 0.9965 0.9958 0.9951 0.9945 0.9946 
0.9949 0.9966 0.9972 0.9977 0.998 0.9984 0.9985 0.9987 0.9988 0.9989 0.9988 0.9987 0.9984 0.9981 0.9977 0.9972 0.9965 0.9958 0.9951 0.9945 0.9946 
0.9949 0.9966 0.9972 0.9977 0.998 0.9984 0.9985 0.9987 0.9988 0.9989 0.9988 0.9987 0.9984 0.9981 0.9977 0.9972 0.9965 0.9958 0.9951 0.9945 0.9946 
0.9949 0.9966 0.9972 0.9977 0.998 0.9984 0.9985 0.9987 0.9988 0.9989 0.9988 0.9987 0.9984 0.9981 0.9977 0.9972 0.9965 0.9958 0.9951 0.9945 0.9946 
0.9949 0.9966 0.9972 0.9977 0.998 0.9984 0.9985 0.9987 0.9988 0.9989 0.9988 0.9987 0.9984 0.9981 0.9977 0.9972 0.9965 0.9958 0.9951 0.9945 0.9946 
0.9949 0.9966 0.9972 0.9977 0.998 0.9984 0.9985 0.9987 0.9988 0.9989 0.9988 0.9987 0.9984 0.9981 0.9977 0.9972 0.9965 0.9958 0.9951 0.9945 0.9946 
0.9949 0.9966 0.9972 0.9977 0.998 0.9984 0.9985 0.9987 0.9988 0.9989 0.9988 0.9987 0.9984 0.9981 0.9977 0.9972 0.9965 0.9958 0.9951 0.9945 0.9946 
0.9949 0.9966 0.9972 0.9977 0.998 0.9984 0.9985 0.9987 0.9988 0.9989 0.9988 0.9987 0.9984 0.9981 0.9977 0.9972 0.9965 0.9958 0.9951 0.9945 0.9946 
0.9949 0.9966 0.9972 0.9977 0.998 0.9984 0.9985 0.9987 0.9988 0.9989 0.9988 0.9987 0.9984 0.9981 0.9977 0.9972 0.9965 0.9958 0.9951 0.9945 0.9946 
0.9949 0.9966 0.9972 0.9977 0.998 0.9984 0.9985 0.9987 0.9988 0.9989 0.9988 0.9987 0.9984 0.9981 0.9977 0.9972 0.9965 0.9958 0.9951 0.9945 0.9946 
0.9949 0.9966 0.9972 0.9977 0.998 0.9984 0.9985 0.9987 0.9988 0.9989 0.9988 0.9987 0.9984 0.9981 0.9977 0.9972 0.9965 0.9958 0.9951 0.9945 0.9946 
0.9949 0.9966 0.9972 0.9977 0.998 0.9984 0.9985 0.9987 0.9988 0.9989 0.9988 0.9987 0.9984 0.9981 0.9977 0.9972 0.9965 0.9958 0.9951 0.9945 0.9946 
0.9949 0.9966 0.9972 0.9977 0.998 0.9984 0.9985 0.9987 0.9988 0.9989 0.9988 0.9987 0.9984 0.9981 0.9977 0.9972 0.9965 0.9958 0.9951 0.9945 0.9946 
0.9949 0.9966 0.9972 0.9977 0.998 0.9984 0.9985 0.9987 0.9988 0.9989 0.9988 0.9987 0.9984 0.9981 0.9977 0.9972 0.9965 0.9958 0.9951 0.9945 0.9946 
0.9949 0.9966 0.9972 0.9977 0.998 0.9984 0.9985 0.9987 0.9988 0.9989 0.9988 0.9987 0.9984 0.9981 0.9977 0.9972 0.9965 0.9958 0.9951 0.9945 0.9946 
0.9949 0.9966 0.9972 0.9977 0.998 0.9984 0.9985 0.9987 0.9988 0.9989 0.9988 0.9987 0.9984 0.9981 0.9977 0.9972 0.9965 0.9958 0.9951 0.9945 0.9946 
0.9949 0.9966 0.9972 0.9977 0.998 0.9984 0.9985 0.9987 0.9988 0.9989 0.9988 0.9987 0.9984 0.9981 0.9977 0.9972 0.9965 0.9958 0.9951 0.9945 0.9946 
0.9949 0.9966 0.9972 0.9977 0.998 0.9984 0.9985 0.9987 0.9988 0.9989 0.9988 0.9987 0.9984 0.9981 0.9977 0.9972 0.9965 0.9958 0.9951 0.9945 0.9946 
0.9949 0.9966 0.9972 0.9977 0.998 0.9984 0.9985 0.9987 0.9988 0.9989 0.9988 0.9987 0.9984 0.9981 0.9977 0.9972 0.9965 0.9958 0.9951 0.9945 0.9946 
0.9949 0.9966 0.9972 0.9977 0.998 0.9984 0.9985 0.9987 0.9988 0.9989 0.9988 0.9987 0.9984 0.9981 0.9977 0.9972 0.9965 0.9958 0.9951 0.9945 0.9946 
0.9949 0.9966 0.9972 0.9977 0.998 0.9984 0.9985 0.9987 0.9988 0.9989 0.9988 0.9987 0.9984 0.9981 0.9977 0.9972 0.9965 0.9958 0.9951 0.9945 0.9946 
0.9949 0.9966 0.9972 0.9977 0.998 0.9984 0.9985 0.9987 0.9988 0.9989 0.9988 0.9987 0.9984 0.9981 0.9977 0.9972 0.9965 0.9958 0.9951 0.9945 0.9946 
0.9949 0.9966 0.9972 0.9977 0.998 0.9984 0.9985 0.9987 0.9988 0.9989 0.9988 0.9987 0.9984 0.9981 0.9977 0.9972 0.9965 0.9958 0.9951 0.9945 0.9946 
0.9949 0.9966 0.9972 0.9977 0.998 0.9984 0.9985 0.9987 0.9988 0.9989 0.9988 0.9987 0.9984 0.9981 0.9977 0.9972 0.9965 0.9958 0.9951 0.9945 0.9946 
0.9949 0.9966 0.9972 0.9977 0.998 0.9984 0.9985 0.9987 0.9988 0.9989 0.9988 0.9987 0.9984 0.9981 0.9977 0.9972 0.9965 0.9958 0.9951 0.9945 0.9946 
0.9949 0.9966 0.9972 0.9977 0.998 0.9984 0.9985 0.9987 0.9988 0.9989 0.9988 0.9987 0.9984 0.9981 0.9977 0.9972 0.9965 0.9958 0.9951 0.9945 0.9946 
0.9949 0.9966 0.9972 0.9977 0.998 0.9984 0.9985 0.9987 0.9988 0.9989 0.9988 0.9987 0.9984 0.9981 0.9977 0.9972 0.9965 0.9958 0.9951 0.9945 0.9946 
0.9949 0.9966 0.9972 0.9977 0.998 0.9984 0.9985 0.9987 0.9988 0.9989 0.9988 0.9987 0.9984 0.9981 0.9977 0.9972 0.9965 0.9958 0.9951 0.9945 0.9946 
0.9949 0.9966 0.9972 0.9977 0.998 0.9984 0.9985 0.9987 0.9988 0.9989 0.9988 0.9987 0.9984 0.9981 0.9977 0.9972 0.9965 0.9958 0.9951 0.9945 0.9946 
0.9949 0.9966 0.9972 0.9977 0.998 0.9984 0.9985 0.9987 0.9988 0.9989 0.9988 0.9987 0.9984 0.9981 0.9977 0.9972 0.9965 0.9958 0.9951 0.9945 0.9946 
0.9949 0.9966 0.9972 0.9977 0.998 0.9984 0.9985 0.9987 0.9988 0.9989 0.9988 0.9987 0.9984 0.9981 0.9977 0.9972 0.9965 0.9958 0.9951 0.9945 0.9946 
0.9949 0.9966 0.9972 0.9977 0.998 0.9984 0.9985 0.9987 0.9988 0.9989 0.9988 0.9987 0.9984 0.9981 0.9977 0.9972 0.9965 0.9958 0.9951 0.9945 0.9946 
</DataArray>
</PointData>
</Piece>
</ImageData>
</VTKFile>
