<VTKFile type="ImageData">
<ImageData Origin="0 -10 0" Spacing="0.5 0.5 1" WholeExtent="0 20 0 40 0 0">
<Piece Extent="0 20 0 40 0 0">
<PointData>
<DataArray Name="f" NumberOfComponents="1" format="ascii" type="Float64">
0.02418 0.02432 0.02439 0.02444 0.02448 0.02451 0.02454 0.02455 0.02455 0.02455 0.02455 0.02454 0.02452 0.0245 0.02448 0.02445 0.02442 0.02438 0.02433 0.02431 0.02418 
0.01529 0.01539 0.01544 0.01549 0.01552 0.01555 0.01556 0.01557 0.01557 0.01558 0.01556 0.01556 0.01554 0.01552 0.0155 0.01548 0.01545 0.01543 0.01538 0.01538 0.01529 
0.009173 0.009249 0.00928 0.009322 0.009339 0.009369 0.009373 0.009393 0.009387 0.009397 0.009382 0.009386 0.009362 0.009361 0.00933 0.009327 0.009288 0.009285 0.009236 0.009238 0.009173 
0.005228 0.005276 0.005288 0.00532 0.005324 0.005352 0.005348 0.005372 0.005362 0.005381 0.005364 0.005379 0.005356 0.005366 0.005337 0.005344 0.005309 0.005313 0.005272 0.005274 0.005228 
0.002833 0.00286 0.002865 0.002881 0.002881 0.002896 0.002892 0.002905 0.002899 0.002912 0.002902 0.002915 0.002902 0.002913 0.002896 0.002904 0.002882 0.002888 0.002861 0.002863 0.002833 
0.001459 0.001473 0.001479 0.001484 0.001486 0.001488 0.001487 0.001488 0.001487 0.001488 0.001486 0.001488 0.001486 0.001488 0.001485 0.001487 0.001481 0.001482 0.001473 0.001473 0.001459 
0.0007091 0.0007193 0.0007244 0.0007278 0.0007295 0.00073 0.0007293 0.000728 0.000726 0.0007241 0.0007218 0.0007202 0.0007183 0.0007174 0.0007161 0.000716 0.0007148 0.000715 0.000713 0.0007129 0.0007091 
0.000322 0.0003289 0.0003331 0.0003364 0.0003387 0.0003402 0.0003407 0.0003404 0.0003394 0.0003379 0.000336 0.0003339 0.0003317 0.0003297 0.0003277 0.0003262 0.0003248 0.0003241 0.0003231 0.0003228 0.000322 
0.0001372 0.0001401 0.0001424 0.0001446 0.0001466 0.0001484 0.0001497 0.0001507 0.0001511 0.0001511 0.0001507 0.0001498 0.0001486 0.0001471 0.0001454 0.0001438 0.0001421 0.0001407 0.0001392 0.0001384 0.0001372 
5.8e-05 5.78e-05 5.818e-05 5.876e-05 5.952e-05 6.044e-05 6.147e-05 6.254e-05 6.357e-05 6.45e-05 6.524e-05 6.573e-05 6.591e-05 6.577e-05 6.527e-05 6.451e-05 6.343e-05 6.232e-05 6.083e-05 5.986e-05 5.8e-05 
3.097e-05 2.898e-05 2.79e-05 2.699e-05 2.632e-05 2.596e-05 2.594e-05 2.626e-05 2.691e-05 2.786e-05 2.905e-05 3.036e-05 3.167e-05 3.285e-05 3.376e-05 3.433e-05 3.445e-05 3.422e-05 3.346e-05 3.274e-05 3.097e-05 
3.299e-05 2.985e-05 2.74e-05 2.497e-05 2.269e-05 2.067e-05 1.902e-05 1.784e-05 1.725e-05 1.732e-05 1.812e-05 1.963e-05 2.175e-05 2.431e-05 2.703e-05 2.96e-05 3.174e-05 3.324e-05 3.395e-05 3.407e-05 3.299e-05 
6.133e-05 5.816e-05 5.397e-05 4.943e-05 4.475e-05 4.011e-05 3.569e-05 3.17e-05 2.835e-05 2.591e-05 2.464e-05 2.483e-05 2.665e-05 3.013e-05 3.506e-05 4.092e-05 4.701e-05 5.255e-05 5.7e-05 5.986e-05 6.133e-05 
0.0001253 0.0001273 0.0001218 0.0001149 0.000107 9.835e-05 8.942e-05 8.048e-05 7.187e-05 6.4e-05 5.739e-05 5.267e-05 5.059e-05 5.19e-05 5.71e-05 6.615e-05 7.826e-05 9.18e-05 0.0001051 0.0001157 0.0001253 
0.0002413 0.0002632 0.0002598 0.0002524 0.0002419 0.000229 0.0002142 0.0001982 0.0001813 0.0001643 0.0001478 0.0001326 0.00012 0.0001118 0.0001099 0.0001162 0.0001318 0.0001555 0.0001844 0.000212 0.0002413 
0.0004345 0.0005046 0.0005122 0.0005108 0.0005023 0.0004879 0.0004684 0.0004449 0.0004181 0.0003888 0.0003579 0.0003263 0.0002954 0.0002674 0.0002454 0.0002343 0.0002394 0.000265 0.000311 0.0003671 0.0004345 
0.0007495 0.0009109 0.0009455 0.0009631 0.000967 0.0009591 0.000941 0.0009138 0.0008787 0.000837 0.0007894 0.0007373 0.0006818 0.0006249 0.0005697 0.0005216 0.0004904 0.0004899 0.0005342 0.0006217 0.0007495 
0.001279 0.00158 0.001665 0.00172 0.001753 0.001766 0.001761 0.00174 0.001704 0.001655 0.001593 0.001521 0.001439 0.001348 0.001251 0.001153 0.00106 0.0009927 0.0009842 0.001073 0.001279 
0.00221 0.00268 0.002841 0.002958 0.00304 0.003092 0.003117 0.003118 0.003094 0.003049 0.002982 0.002895 0.002789 0.002666 0.002527 0.002374 0.002212 0.002051 0.001927 0.001932 0.00221 
0.003873 0.004491 0.004751 0.004946 0.005095 0.005206 0.00528 0.005319 0.005325 0.005299 0.005241 0.005152 0.005034 0.004886 0.00471 0.004507 0.004278 0.004027 0.003767 0.003577 0.003873 
0.006764 0.007439 0.007801 0.008083 0.008309 0.008488 0.008624 0.008717 0.008769 0.008778 0.008745 0.00867 0.008552 0.008393 0.008191 0.007948 0.007663 0.007337 0.006971 0.006567 0.006764 
0.01149 0.01211 0.01254 0.0129 0.01319 0.01344 0.01364 0.01379 0.0139 0.01395 0.01396 0.01391 0.01381 0.01365 0.01344 0.01317 0.01284 0.01246 0.01201 0.0115 0.01149 
0.01859 0.01916 0.01961 0.02 0.02035 0.02065 0.0209 0.02111 0.02127 0.02137 0.02142 0.02141 0.02133 0.02119 0.02098 0.0207 0.02035 0.01992 0.01941 0.01882 0.01859 
0.02861 0.02913 0.02956 0.02996 0.03033 0.03066 0.03095 0.0312 0.0314 0.03155 0.03163 0.03166 0.03161 0.0315 0.0313 0.03103 0.03066 0.03021 0.02966 0.02901 0.02861 
0.04188 0.04237 0.04277 0.04316 0.04352 0.04386 0.04417 0.04444 0.04466 0.04484 0.04495 0.04501 0.04499 0.0449 0.04473 0.04447 0.04411 0.04366 0.0431 0.04242 0.04188 
0.05843 0.05888 0.05925 0.05961 0.05996 0.06029 0.06059 0.06086 0.06109 0.06128 0.06142 0.06149 0.0615 0.06143 0.06128 0.06104 0.06071 0.06027 0.05972 0.05905 0.05843 
0.0778 0.07822 0.07855 0.07888 0.0792 0.0795 0.07978 0.08004 0.08026 0.08045 0.08058 0.08067 0.08069 0.08064 0.08051 0.0803 0.07999 0.07959 0.07908 0.07845 0.0778 
0.09898 0.09936 0.09964 0.09994 0.1002 0.1005 0.1007 0.101 0.1012 0.1013 0.1015 0.1015 0.1016 0.1015 0.1014 0.1012 0.101 0.1006 0.1002 0.0996 0.09898 
0.1204 0.1207 0.121 0.1212 0.1214 0.1217 0.1219 0.1221 0.1222 0.1224 0.1225 0.1225 0.1226 0.1225 0.1224 0.1223 0.1221 0.1218 0.1214 0.1209 0.1204 
0.1401 0.1403 0.1405 0.1407 0.1409 0.1411 0.1412 0.1414 0.1415 0.1416 0.1417 0.1417 0.1417 0.1417 0.1416 0.1415 0.1413 0.1411 0.1408 0.1405 0.1401 
0.1559 0.1561 0.1562 0.1563 0.1564 0.1566 0.1567 0.1568 0.1569 0.1569 0.157 0.157 0.157 0.1569 0.1569 0.1568 0.1567 0.1565 0.1563 0.1561 0.1559 
0.1659 0.166 0.1661 0.1662 0.1662 0.1663 0.1664 0.1664 0.1664 0.1664 0.1664 0.1664 0.1664 0.1664 0.1663 0.1663 0.1662 0.1662 0.1661 0.166 0.1659 
0.1689 0.1689 0.1689 0.1689 0.169 0.169 0.1689 0.1689 0.1689 0.1689 0.1689 0.1688 0.1688 0.1688 0.1688 0.1687 0.1687 0.1688 0.1688 0.1688 0.1689 
0.1644 0.1643 0.1643 0.1642 0.1642 0.1641 0.1641 0.164 0.1639 0.1639 0.1638 0.1638 0.1638 0.1638 0.1638 0.1638 0.1639 0.164 0.1641 0.1642 0.1644 
0.153 0.1527 0.1527 0.1525 0.1525 0.1523 0.1522 0.1521 0.1521 0.152 0.152 0.1519 0.152 0.152 0.1521 0.1521 0.1522 0.1523 0.1525 0.1527 0.153 
0.1359 0.1355 0.1355 0.1352 0.1352 0.1349 0.135 0.1348 0.1349 0.1347 0.1348 0.1347 0.1348 0.1348 0.1349 0.135 0.1351 0.1352 0.1354 0.1355 0.1359 
0.1151 0.1148 0.1148 0.1145 0.1145 0.1143 0.1144 0.1142 0.1143 0.1141 0.1143 0.1142 0.1143 0.1142 0.1143 0.1143 0.1144 0.1145 0.1146 0.1148 0.1151 
0.09312 0.09282 0.09285 0.09263 0.09266 0.09251 0.09253 0.09242 0.09242 0.09235 0.09234 0.09229 0.09228 0.09227 0.09228 0.09231 0.09237 0.09246 0.0926 0.09277 0.09312 
0.07196 0.07172 0.07174 0.07157 0.07154 0.07141 0.07134 0.07125 0.07117 0.0711 0.07105 0.07101 0.07099 0.07099 0.07102 0.07107 0.07116 0.07128 0.07143 0.07162 0.07196 
0.05306 0.05278 0.05274 0.05256 0.05245 0.05234 0.05225 0.05218 0.05213 0.0521 0.05209 0.0521 0.05213 0.05217 0.05224 0.05232 0.05242 0.05253 0.05266 0.05281 0.05306 
0.03701 0.03671 0.03665 0.03658 0.03653 0.03651 0.0365 0.03651 0.03653 0.03655 0.03658 0.03662 0.03665 0.03669 0.03673 0.03677 0.03681 0.03685 0.03689 0.03694 0.03701 
</DataArray>
<DataArray Name="E" NumberOfComponents="1" format="ascii" type="Float64">
1.578 1.573 1.562 1.552 1.543 1.535 1.527 1.52 1.513 1.507 1.5 1.494 1.487 1.481 1.473 1.465 1.457 1.448 1.437 1.426 1.42 
1.578 1.573 1.562 1.552 1.543 1.535 1.527 1.52 1.513 1.507 1.5 1.494 1.487 1.481 1.473 1.465 1.457 1.448 1.437 1.426 1.42 
1.578 1.573 1.562 1.552 1.543 1.535 1.527 1.52 1.513 1.507 1.5 1.494 1.487 1.481 1.473 1.465 1.457 1.448 1.437 1.426 1.42 
1.578 1.573 1.562 1.552 1.543 1.535 1.527 1.52 1.513 1.507 1.5 1.494 1.487 1.481 1.473 1.465 1.457 1.448 1.437 1.426 1.42 
1.578 1.573 1.562 1.552 1.543 1.535 1.527 1.52 1.513 1.507 1.5 1.494 1.487 1.481 1.473 1.465 1.457 1.448 1.437 1.426 1.42 
1.578 1.573 1.562 1.552 1.543 1.535 1.527 1.52 1.513 1.507 1.5 1.494 1.487 1.481 1.473 1.465 1.457 1.448 1.437 1.426 1.42 
1.578 1.573 1.562 1.552 1.543 1.535 1.527 1.52 1.513 1.507 1.5 1.494 1.487 1.481 1.473 1.465 1.457 1.448 1.437 1.426 1.42 
1.578 1.573 1.562 1.552 1.543 1.535 1.527 1.52 1.513 1.507 1.5 1.494 1.487 1.481 1.473 1.465 1.457 1.448 1.437 1.426 1.42 
1.578 1.573 1.562 1.552 1.543 1.535 1.527 1.52 1.513 1.507 1.5 1.494 1.487 1.481 1.473 1.465 1.457 1.448 1.437 1.426 1.42 
1.578 1.573 1.562 1.552 1.543 1.535 1.527 1.52 1.513 1.507 1.5 1.494 1.487 1.481 1.473 1.465 1.457 1.448 1.437 1.426 1.42 
1.578 1.573 1.562 1.552 1.543 1.535 1.527 1.52 1.513 1.507 1.5 1.494 1.487 1.481 1.473 1.465 1.457 1.448 1.437 1.426 1.42 
1.578 1.573 1.562 1.552 1.543 1.535 1.527 1.52 1.513 1.507 1.5 1.494 1.487 1.481 1.473 1.465 1.457 1.448 1.437 1.426 1.42 
1.578 1.573 1.562 1.552 1.543 1.535 1.527 1.52 1.513 1.507 1.5 1.494 1.487 1.481 1.473 1.465 1.457 1.448 1.437 1.426 1.42 
1.578 1.573 1.562 1.552 1.543 1.535 1.527 1.52 1.513 1.507 1.5 1.494 1.487 1.481 1.473 1.465 1.457 1.448 1.437 1.426 1.42 
1.578 1.573 1.562 1.552 1.543 1.535 1.527 1.52 1.513 1.507 1.5 1.494 1.487 1.481 1.473 1.465 1.457 1.448 1.437 1.426 1.42 
1.578 1.573 1.562 1.552 1.543 1.535 1.527 1.52 1.513 1.507 1.5 1.494 1.487 1.481 1.473 1.465 1.457 1.448 1.437 1.426 1.42 
1.578 1.573 1.562 1.552 1.543 1.535 1.527 1.52 1.513 1.507 1.5 1.494 1.487 1.481 1.473 1.465 1.457 1.448 1.437 1.426 1.42 
1.578 1.573 1.562 1.552 1.543 1.535 1.527 1.52 1.513 1.507 1.5 1.494 1.487 1.481 1.473 1.465 1.457 1.448 1.437 1.426 1.42 
1.578 1.573 1.562 1.552 1.543 1.535 1.527 1.52 1.513 1.507 1.5 1.494 1.487 1.481 1.473 1.465 1.457 1.448 1.437 1.426 1.42 
1.578 1.573 1.562 1.552 1.543 1.535 1.527 1.52 1.513 1.507 1.5 1.494 1.487 1.481 1.473 1.465 1.457 1.448 1.437 1.426 1.42 
1.578 1.573 1.562 1.552 1.543 1.535 1.527 1.52 1.513 1.507 1.5 1.494 1.487 1.481 1.473 1.465 1.457 1.448 1.437 1.426 1.42 
1.578 1.573 1.562 1.552 1.543 1.535 1.527 1.52 1.513 1.507 1.5 1.494 1.487 1.481 1.473 1.465 1.457 1.448 1.437 1.426 1.42 
1.578 1.573 1.562 1.552 1.543 1.535 1.527 1.52 1.513 1.507 1.5 1.494 1.487 1.481 1.473 1.465 1.457 1.448 1.437 1.426 1.42 
1.578 1.573 1.562 1.552 1.543 1.535 1.527 1.52 1.513 1.507 1.5 1.494 1.487 1.481 1.473 1.465 1.457 1.448 1.437 1.426 1.42 
1.578 1.573 1.562 1.552 1.543 1.535 1.527 1.52 1.513 1.507 1.5 1.494 1.487 1.481 1.473 1.465 1.457 1.448 1.437 1.426 1.42 
1.578 1.573 1.562 1.552 1.543 1.535 1.527 1.52 1.513 1.507 1.5 1.494 1.487 1.481 1.473 1.465 1.457 1.448 1.437 1.426 1.42 
1.578 1.573 1.562 1.552 1.543 1.535 1.527 1.52 1.513 1.507 1.5 1.494 1.487 1.481 1.473 1.465 1.457 1.448 1.437 1.426 1.42 
1.578 1.573 1.562 1.552 1.543 1.535 1.527 1.52 1.513 1.507 1.5 1.494 1.487 1.481 1.473 1.465 1.457 1.448 1.437 1.426 1.42 
1.578 1.573 1.562 1.552 1.543 1.535 1.527 1.52 1.513 1.507 1.5 1.494 1.487 1.481 1.473 1.465 1.457 1.448 1.437 1.426 1.42 
1.578 1.573 1.562 1.552 1.543 1.535 1.527 1.52 1.513 1.507 1.5 1.494 1.487 1.481 1.473 1.465 1.457 1.448 1.437 1.426 1.42 
1.578 1.573 1.562 1.552 1.543 1.535 1.527 1.52 1.513 1.507 1.5 1.494 1.487 1.481 1.473 1.465 1.457 1.448 1.437 1.426 1.42 
1.578 1.573 1.562 1.552 1.543 1.535 1.527 1.52 1.513 1.507 1.5 1.494 1.487 1.481 1.473 1.465 1.457 1.448 1.437 1.426 1.42 
1.578 1.573 1.562 1.552 1.543 1.535 1.527 1.52 1.513 1.507 1.5 1.494 1.487 1.481 1.473 1.465 1.457 1.448 1.437 1.426 1.42 
1.578 1.573 1.562 1.552 1.543 1.535 1.527 1.52 1.513 1.507 1.5 1.494 1.487 1.481 1.473 1.465 1.457 1.448 1.437 1.426 1.42 
1.578 1.573 1.562 1.552 1.543 1.535 1.527 1.52 1.513 1.507 1.5 1.494 1.487 1.481 1.473 1.465 1.457 1.448 1.437 1.426 1.42 
1.578 1.573 1.562 1.552 1.543 1.535 1.527 1.52 1.513 1.507 1.5 1.494 1.487 1.481 1.473 1.465 1.457 1.448 1.437 1.426 1.42 
1.578 1.573 1.562 1.552 1.543 1.535 1.527 1.52 1.513 1.507 1.5 1.494 1.487 1.481 1.473 1.465 1.457 1.448 1.437 1.426 1.42 
1.578 1.573 1.562 1.552 1.543 1.535 1.527 1.52 1.513 1.507 1.5 1.494 1.487 1.481 1.473 1.465 1.457 1.448 1.437 1.426 1.42 
1.578 1.573 1.562 1.552 1.543 1.535 1.527 1.52 1.513 1.507 1.5 1.494 1.487 1.481 1.473 1.465 1.457 1.448 1.437 1.426 1.42 
1.578 1.573 1.562 1.552 1.543 1.535 1.527 1.52 1.513 1.507 1.5 1.494 1.487 1.481 1.473 1.465 1.457 1.448 1.437 1.426 1.42 
1.578 1.573 1.562 1.552 1.543 1.535 1.527 1.52 1.513 1.507 1.5 1.494 1.487 1.481 1.473 1.465 1.457 1.448 1.437 1.426 1.42 
</DataArray>
<DataArray Name="ne" NumberOfComponents="1" format="ascii" type="Float64">
0.9751 0.9779 0.9795 0.9814 0.9826 0.9842 0.985 0.9861 0.9866 0.9872 0.9872 0.9872 0.9867 0.9861 0.985 0.9838 0.9822 0.9803 0.9782 0.9758 0.9746 
0.9751 0.9779 0.9795 0.9814 0.9826 0.9842 0.985 0.9861 0.9866 0.9872 0.9872 0.9872 0.9867 0.9861 0.985 0.9838 0.9822 0.9803 0.9782 0.9758 0.9746 
0.9751 0.9779 0.9795 0.9814 0.9826 0.9842 0.985 0.9861 0.9866 0.9872 0.9872 0.9872 0.9867 0.9861 0.985 0.9838 0.9822 0.9803 0.9782 0.9758 0.9746 
0.9751 0.9779 0.9795 0.9814 0.9826 0.9842 0.985 0.9861 0.9866 0.9872 0.9872 0.9872 0.9867 0.9861 0.985 0.9838 0.9822 0.9803 0.9782 0.9758 0.9746 
0.9751 0.9779 0.9795 0.9814 0.9826 0.9842 0.985 0.9861 0.9866 0.9872 0.9872 0.9872 0.9867 0.9861 0.985 0.9838 0.9822 0.9803 0.9782 0.9758 0.9746 
0.9751 0.9779 0.9795 0.9814 0.9826 0.9842 0.985 0.9861 0.9866 0.9872 0.9872 0.9872 0.9867 0.9861 0.985 0.9838 0.9822 0.9803 0.9782 0.9758 0.9746 
0.9751 0.9779 0.9795 0.9814 0.9826 0.9842 0.985 0.9861 0.9866 0.9872 0.9872 0.9872 0.9867 0.9861 0.985 0.9838 0.9822 0.9803 0.9782 0.9758 0.9746 
0.9751 0.9779 0.9795 0.9814 0.9826 0.9842 0.985 0.9861 0.9866 0.9872 0.9872 0.9872 0.9867 0.9861 0.985 0.9838 0.9822 0.9803 0.9782 0.9758 0.9746 
0.9751 0.9779 0.9795 0.9814 0.9826 0.9842 0.985 0.9861 0.9866 0.9872 0.9872 0.9872 0.9867 0.9861 0.985 0.9838 0.9822 0.9803 0.9782 0.9758 0.9746 
0.9751 0.9779 0.9795 0.9814 0.9826 0.9842 0.985 0.9861 0.9866 0.9872 0.9872 0.9872 0.9867 0.9861 0.985 0.9838 0.9822 0.9803 0.9782 0.9758 0.9746 
0.9751 0.9779 0.9795 0.9814 0.9826 0.9842 0.985 0.9861 0.9866 0.9872 0.9872 0.9872 0.9867 0.9861 0.985 0.9838 0.9822 0.9803 0.9782 0.9758 0.9746 
0.9751 0.9779 0.9795 0.9814 0.9826 0.9842 0.985 0.9861 0.9866 0.9872 0.9872 0.9872 0.9867 0.9861 0.985 0.9838 0.9822 0.9803 0.9782 0.9758 0.9746 
0.9751 0.9779 0.9795 0.9814 0.9826 0.9842 0.985 0.9861 0.9866 0.9872 0.9872 0.9872 0.9867 0.9861 0.985 0.9838 0.9822 0.9803 0.9782 0.9758 0.9746 
0.9751 0.9779 0.9795 0.9814 0.9826 0.9842 0.985 0.9861 0.9866 0.9872 0.9872 0.9872 0.9867 0.9861 0.985 0.9838 0.9822 0.9803 0.9782 0.9758 0.9746 
0.9751 0.9779 0.9795 0.9814 0.9826 0.9842 0.985 0.9861 0.9866 0.9872 0.9872 0.9872 0.9867 0.9861 0.985 0.9838 0.9822 0.9803 0.9782 0.9758 0.9746 
0.9751 0.9779 0.9795 0.9814 0.9826 0.9842 0.985 0.9861 0.9866 0.9872 0.9872 0.9872 0.9867 0.9861 0.985 0.9838 0.9822 0.9803 0.9782 0.9758 0.9746 
0.9751 0.9779 0.9795 0.9814 0.9826 0.9842 0.985 0.9861 0.9866 0.9872 0.9872 0.9872 0.9867 0.9861 0.985 0.9838 0.9822 0.9803 0.9782 0.9758 0.9746 
0.9751 0.9779 0.9795 0.9814 0.9826 0.9842 0.985 0.9861 0.9866 0.9872 0.9872 0.9872 0.9867 0.9861 0.985 0.9838 0.9822 0.9803 0.9782 0.9758 0.9746 
0.9751 0.9779 0.9795 0.9814 0.9826 0.9842 0.985 0.9861 0.9866 0.9872 0.9872 0.9872 0.9867 0.9861 0.985 0.9838 0.9822 0.9803 0.9782 0.9758 0.9746 
0.9751 0.9779 0.9795 0.9814 0.9826 0.9842 0.985 0.9861 0.9866 0.9872 0.9872 0.9872 0.9867 0.9861 0.985 0.9838 0.9822 0.9803 0.9782 0.9758 0.9746 
0.9751 0.9779 0.9795 0.9814 0.9826 0.9842 0.985 0.9861 0.9866 0.9872 0.9872 0.9872 0.9867 0.9861 0.985 0.9838 0.9822 0.9803 0.9782 0.9758 0.9746 
0.9751 0.9779 0.9795 0.9814 0.9826 0.9842 0.985 0.9861 0.9866 0.9872 0.9872 0.9872 0.9867 0.9861 0.985 0.9838 0.9822 0.9803 0.9782 0.9758 0.9746 
0.9751 0.9779 0.9795 0.9814 0.9826 0.9842 0.985 0.9861 0.9866 0.9872 0.9872 0.9872 0.9867 0.9861 0.985 0.9838 0.9822 0.9803 0.9782 0.9758 0.9746 
0.9751 0.9779 0.9795 0.9814 0.9826 0.9842 0.985 0.9861 0.9866 0.9872 0.9872 0.9872 0.9867 0.9861 0.985 0.9838 0.9822 0.9803 0.9782 0.9758 0.9746 
0.9751 0.9779 0.9795 0.9814 0.9826 0.9842 0.985 0.9861 0.9866 0.9872 0.9872 0.9872 0.9867 0.9861 0.985 0.9838 0.9822 0.9803 0.9782 0.9758 0.9746 
0.9751 0.9779 0.9795 0.9814 0.9826 0.9842 0.985 0.9861 0.9866 0.9872 0.9872 0.9872 0.9867 0.9861 0.985 0.9838 0.9822 0.9803 0.9782 0.9758 0.9746 
0.9751 0.9779 0.9795 0.9814 0.9826 0.9842 0.985 0.9861 0.9866 0.9872 0.9872 0.9872 0.9867 0.9861 0.985 0.9838 0.9822 0.9803 0.9782 0.9758 0.9746 
0.9751 0.9779 0.9795 0.9814 0.9826 0.9842 0.985 0.9861 0.9866 0.9872 0.9872 0.9872 0.9867 0.9861 0.985 0.9838 0.9822 0.9803 0.9782 0.9758 0.9746 
0.9751 0.9779 0.9795 0.9814 0.9826 0.9842 0.985 0.9861 0.9866 0.9872 0.9872 0.9872 0.9867 0.9861 0.985 0.9838 0.9822 0.9803 0.9782 0.9758 0.9746 
0.9751 0.9779 0.9795 0.9814 0.9826 0.9842 0.985 0.9861 0.9866 0.9872 0.9872 0.9872 0.9867 0.9861 0.985 0.9838 0.9822 0.9803 0.9782 0.9758 0.9746 
0.9751 0.9779 0.9795 0.9814 0.9826 0.9842 0.985 0.9861 0.9866 0.9872 0.9872 0.9872 0.9867 0.9861 0.985 0.9838 0.9822 0.9803 0.9782 0.9758 0.9746 
0.9751 0.9779 0.9795 0.9814 0.9826 0.9842 0.985 0.9861 0.9866 0.9872 0.9872 0.9872 0.9867 0.9861 0.985 0.9838 0.9822 0.9803 0.9782 0.9758 0.9746 
0.9751 0.9779 0.9795 0.9814 0.9826 0.9842 0.985 0.9861 0.9866 0.9872 0.9872 0.9872 0.9867 0.9861 0.985 0.9838 0.9822 0.9803 0.9782 0.9758 0.9746 
0.9751 0.9779 0.9795 0.9814 0.9826 0.9842 0.985 0.9861 0.9866 0.9872 0.9872 0.9872 0.9867 0.9861 0.985 0.9838 0.9822 0.9803 0.9782 0.9758 0.9746 
0.9751 0.9779 0.9795 0.9814 0.9826 0.9842 0.985 0.9861 0.9866 0.9872 0.9872 0.9872 0.9867 0.9861 0.985 0.9838 0.9822 0.9803 0.9782 0.9758 0.9746 
0.9751 0.9779 0.9795 0.9814 0.9826 0.9842 0.985 0.9861 0.9866 0.9872 0.9872 0.9872 0.9867 0.9861 0.985 0.9838 0.9822 0.9803 0.9782 0.9758 0.9746 
0.9751 0.9779 0.9795 0.9814 0.9826 0.9842 0.985 0.9861 0.9866 0.9872 0.9872 0.9872 0.9867 0.9861 0.985 0.9838 0.9822 0.9803 0.9782 0.9758 0.9746 
0.9751 0.9779 0.9795 0.9814 0.9826 0.9842 0.985 0.9861 0.9866 0.9872 0.9872 0.9872 0.9867 0.9861 0.985 0.9838 0.9822 0.9803 0.9782 0.9758 0.9746 
0.9751 0.9779 0.9795 0.9814 0.9826 0.9842 0.985 0.9861 0.9866 0.9872 0.9872 0.9872 0.9867 0.9861 0.985 0.9838 0.9822 0.9803 0.9782 0.9758 0.9746 
0.9751 0.9779 0.9795 0.9814 0.9826 0.9842 0.985 0.9861 0.9866 0.9872 0.9872 0.9872 0.9867 0.9861 0.985 0.9838 0.9822 0.9803 0.9782 0.9758 0.9746 
0.9751 0.9779 0.9795 0.9814 0.9826 0.9842 0.985 0.9861 0.9866 0.9872 0.9872 0.9872 0.9867 0.9861 0.985 0.9838 0.9822 0.9803 0.9782 0.9758 0.9746 
</DataArray>
</PointData>
</Piece>
</ImageData>
</VTKFile>
