<VTKFile type="ImageData">
<ImageData Origin="0 -10 0" Spacing="0.5 0.5 1" WholeExtent="0 20 0 40 0 0">
<Piece Extent="0 20 0 40 0 0">
<PointData>
<DataArray Name="f" NumberOfComponents="1" format="ascii" type="Float64">
4.894e-12 4.697e-12 4.436e-12 3.769e-12 2.432e-12 9.466e-13 2.226e-13 3.153e-14 2.575e-15 1.085e-16 1.742e-18 0 0 0 0 0 0 0 0 0 0 
9.96e-11 9.619e-11 9.401e-11 8.933e-11 7.379e-11 4.316e-11 1.699e-11 4.468e-12 7.763e-13 8.629e-14 5.744e-15 2.011e-16 2.691e-18 0 0 0 0 0 0 0 0 
1.626e-09 1.571e-09 1.544e-09 1.523e-09 1.437e-09 1.106e-09 6.328e-10 2.615e-10 7.714e-11 1.601e-11 2.278e-12 2.12e-13 1.196e-14 3.551e-16 4.002e-18 0 0 0 0 0 0 
2.144e-08 2.07e-08 2.036e-08 2.02e-08 1.998e-08 1.799e-08 1.334e-08 7.703e-09 3.381e-09 1.112e-09 2.697e-10 4.709e-11 5.717e-12 4.576e-13 2.225e-14 5.695e-16 5.519e-18 0 0 0 0 
2.299e-07 2.217e-07 2.18e-07 2.164e-07 2.157e-07 2.079e-07 1.802e-07 1.316e-07 7.779e-08 3.634e-08 1.321e-08 3.671e-09 7.638e-10 1.157e-10 1.227e-11 8.642e-13 3.733e-14 8.612e-16 7.652e-18 0 0 
2.015e-06 1.944e-06 1.909e-06 1.894e-06 1.888e-06 1.863e-06 1.748e-06 1.478e-06 1.073e-06 6.457e-07 3.15e-07 1.222e-07 3.697e-08 8.523e-09 1.454e-09 1.769e-10 1.457e-11 7.536e-13 2.152e-14 2.504e-16 0 
1.452e-05 1.401e-05 1.375e-05 1.364e-05 1.359e-05 1.352e-05 1.317e-05 1.21e-05 1.004e-05 7.218e-06 4.358e-06 2.155e-06 8.532e-07 2.637e-07 6.175e-08 1.055e-08 1.248e-09 9.468e-11 4.017e-12 6.918e-14 0 
8.656e-05 8.356e-05 8.195e-05 8.125e-05 8.096e-05 8.075e-05 7.991e-05 7.684e-05 6.939e-05 5.656e-05 4.012e-05 2.399e-05 1.176e-05 4.594e-06 1.385e-06 3.093e-07 4.854e-08 4.938e-09 2.831e-10 6.59e-12 0 
0.0004289 0.0004143 0.0004062 0.0004026 0.0004011 0.0004004 0.0003988 0.0003922 0.0003726 0.0003311 0.000265 0.0001844 0.0001079 5.135e-05 1.919e-05 5.395e-06 1.079e-06 1.414e-07 1.053e-08 3.197e-10 0 
0.001776 0.001717 0.001682 0.001668 0.001662 0.001659 0.001656 0.001646 0.001608 0.00151 0.00132 0.001035 0.0007015 0.0003959 0.0001789 6.179e-05 1.539e-05 2.54e-06 2.405e-07 9.372e-09 0 
0.006167 0.005968 0.00585 0.005799 0.005779 0.00577 0.005766 0.005752 0.005698 0.005529 0.005132 0.004408 0.003373 0.002206 0.001181 0.0004928 0.0001506 3.09e-05 3.681e-06 1.827e-07 0 
0.01803 0.01748 0.01714 0.01699 0.01694 0.01691 0.0169 0.01689 0.01683 0.01662 0.01602 0.01469 0.01237 0.009175 0.005721 0.002843 0.001055 0.0002671 3.985e-05 2.515e-06 0 
0.04446 0.04321 0.04242 0.04208 0.04195 0.0419 0.04188 0.04186 0.04182 0.04163 0.04096 0.0392 0.03547 0.02919 0.02082 0.01217 0.005439 0.001694 0.0003166 2.55e-05 0 
0.09269 0.09039 0.08889 0.08825 0.088 0.0879 0.08786 0.08785 0.08782 0.0877 0.08718 0.08552 0.08125 0.07245 0.05798 0.03932 0.02103 0.008049 0.001893 0.0001964 0 
0.1633 0.1601 0.1579 0.1569 0.1565 0.1564 0.1563 0.1563 0.1563 0.1563 0.156 0.1549 0.1515 0.1429 0.1254 0.09705 0.06157 0.02898 0.008651 0.001174 0 
0.2416 0.2401 0.2377 0.2367 0.2362 0.2361 0.236 0.236 0.236 0.236 0.2359 0.2354 0.2336 0.2281 0.2139 0.1846 0.1371 0.07924 0.03037 0.00551 0 
0.2934 0.3034 0.3032 0.3026 0.3024 0.3023 0.3022 0.3022 0.3022 0.3022 0.3022 0.3021 0.3015 0.2993 0.2922 0.2733 0.2322 0.1636 0.08137 0.02034 0 
0.2766 0.3179 0.3262 0.3276 0.3278 0.3278 0.3278 0.3278 0.3278 0.3278 0.3278 0.3278 0.3278 0.3274 0.3258 0.3196 0.3 0.2517 0.1632 0.05829 0 
0.1807 0.2643 0.2919 0.2987 0.3003 0.3006 0.3007 0.3007 0.3007 0.3007 0.3007 0.3007 0.3008 0.301 0.3014 0.3017 0.2996 0.2861 0.2374 0.1262 0 
0.06528 0.1595 0.2085 0.2259 0.231 0.2322 0.2325 0.2325 0.2325 0.2325 0.2325 0.2326 0.2327 0.2329 0.2336 0.2351 0.2382 0.2427 0.2415 0.1969 0 
0.006232 0.06077 0.1093 0.1356 0.1463 0.1499 0.1508 0.151 0.1511 0.1511 0.1511 0.1511 0.1512 0.1514 0.1519 0.1531 0.1558 0.1611 0.1714 0.1909 0.2052 
0 0.01334 0.03769 0.05962 0.0729 0.079 0.08123 0.0819 0.08207 0.0821 0.08211 0.08213 0.08217 0.08231 0.08265 0.08344 0.08513 0.08853 0.09509 0.1076 0.1189 
0 0.002279 0.009144 0.01877 0.02735 0.03287 0.03561 0.03669 0.03703 0.03713 0.03715 0.03716 0.03718 0.03725 0.03743 0.03782 0.03867 0.04036 0.04361 0.04976 0.05616 
0 0.0002982 0.001608 0.004242 0.007527 0.01042 0.01233 0.01332 0.01373 0.01387 0.01391 0.01392 0.01393 0.01396 0.01403 0.01419 0.01452 0.01519 0.01647 0.01886 0.02159 
0 2.93e-05 0.0002057 0.0006878 0.001497 0.002443 0.003266 0.003818 0.004111 0.004235 0.004277 0.00429 0.004295 0.004305 0.004327 0.004378 0.004485 0.004697 0.005097 0.00584 0.006741 
0 2.115e-06 1.895e-05 7.95e-05 0.0002126 0.000415 0.0006422 0.0008377 0.0009695 0.00104 0.00107 0.00108 0.001083 0.001086 0.001092 0.001105 0.001132 0.001186 0.001286 0.001471 0.001705 
0 1.092e-07 1.234e-06 6.455e-06 2.123e-05 5.004e-05 9.132e-05 0.0001364 0.0001748 0.0002006 0.0002142 0.0002199 0.0002219 0.0002228 0.0002241 0.0002268 0.0002323 0.0002432 0.0002634 0.0003001 0.0003483 
0 3.904e-09 5.53e-08 3.602e-07 1.46e-06 4.188e-06 9.145e-06 1.599e-05 2.334e-05 2.952e-05 3.361e-05 3.573e-05 3.66e-05 3.692e-05 3.717e-05 3.761e-05 3.852e-05 4.028e-05 4.353e-05 4.937e-05 5.722e-05 
0 9.271e-11 1.647e-09 1.338e-08 6.72e-08 2.366e-07 6.266e-07 1.308e-06 2.229e-06 3.204e-06 4.014e-06 4.538e-06 4.8e-06 4.905e-06 4.954e-06 5.015e-06 5.132e-06 5.359e-06 5.776e-06 6.517e-06 7.534e-06 
0 1.384e-12 3.1e-11 3.165e-10 1.987e-09 8.687e-09 2.832e-08 7.188e-08 1.466e-07 2.468e-07 3.519e-07 4.376e-07 4.912e-07 5.168e-07 5.273e-07 5.347e-07 5.469e-07 5.701e-07 6.125e-07 6.872e-07 7.917e-07 
0 1.203e-14 3.439e-13 4.468e-12 3.558e-11 1.963e-10 8.022e-10 2.531e-09 6.339e-09 1.288e-08 2.167e-08 3.083e-08 3.812e-08 4.247e-08 4.444e-08 4.536e-08 4.639e-08 4.827e-08 5.169e-08 5.767e-08 6.618e-08 
0 5.411e-17 2.017e-15 3.409e-14 3.521e-13 2.51e-12 1.319e-11 5.318e-11 1.686e-10 4.285e-10 8.848e-10 1.506e-09 2.151e-09 2.649e-09 2.926e-09 3.044e-09 3.121e-09 3.241e-09 3.459e-09 3.837e-09 4.385e-09 
0 1.04e-19 5.23e-18 1.191e-16 1.654e-15 1.581e-14 1.11e-13 5.943e-13 2.488e-12 8.262e-12 2.199e-11 4.727e-11 8.275e-11 1.196e-10 1.467e-10 1.602e-10 1.659e-10 1.72e-10 1.83e-10 2.018e-10 2.297e-10 
0 0 0 1.399e-19 2.773e-18 3.776e-17 3.765e-16 2.853e-15 1.68e-14 7.794e-14 2.867e-13 8.384e-13 1.948e-12 3.598e-12 5.323e-12 6.487e-12 6.954e-12 7.194e-12 7.627e-12 8.368e-12 9.485e-12 
0 0 0 0 0 1.906e-20 3.028e-19 3.644e-18 3.394e-17 2.475e-16 1.42e-15 6.391e-15 2.243e-14 6.061e-14 1.244e-13 1.921e-13 2.291e-13 2.366e-13 2.5e-13 2.729e-13 3.082e-13 
0 0 0 0 0 0 0 0 0 8.068e-20 9.635e-19 8.941e-18 6.363e-17 3.395e-16 1.311e-15 3.474e-15 5.91e-15 6.103e-15 6.432e-15 6.988e-15 7.866e-15 
0 0 0 0 0 0 0 0 0 0 0 0 0 0 0 0 1.11e-16 1.204e-16 1.289e-16 1.401e-16 1.574e-16 
0 0 0 0 0 0 0 0 0 0 0 0 0 0 0 0 0 7.298e-19 1.544e-18 2.066e-18 2.445e-18 
0 0 0 0 0 0 0 0 0 0 0 0 0 0 0 0 0 0 1.07e-20 1.944e-20 2.717e-20 
0 0 0 0 0 0 0 0 0 0 0 0 0 0 0 0 0 0 0 0 0 
0 0 0 0 0 0 0 0 0 0 0 0 0 0 0 0 0 0 0 0 0 
</DataArray>
<DataArray Name="E" NumberOfComponents="1" format="ascii" type="Float64">
1.736 1.696 1.636 1.607 1.593 1.588 1.585 1.585 1.584 1.584 1.584 1.583 1.58 1.572 1.555 1.52 1.455 1.344 1.171 0.922 0.7767 
1.736 1.696 1.636 1.607 1.593 1.588 1.585 1.585 1.584 1.584 1.584 1.583 1.58 1.572 1.555 1.52 1.455 1.344 1.171 0.922 0.7767 
1.736 1.696 1.636 1.607 1.593 1.588 1.585 1.585 1.584 1.584 1.584 1.583 1.58 1.572 1.555 1.52 1.455 1.344 1.171 0.922 0.7767 
1.736 1.696 1.636 1.607 1.593 1.588 1.585 1.585 1.584 1.584 1.584 1.583 1.58 1.572 1.555 1.52 1.455 1.344 1.171 0.922 0.7767 
1.736 1.696 1.636 1.607 1.593 1.588 1.585 1.585 1.584 1.584 1.584 1.583 1.58 1.572 1.555 1.52 1.455 1.344 1.171 0.922 0.7767 
1.736 1.696 1.636 1.607 1.593 1.588 1.585 1.585 1.584 1.584 1.584 1.583 1.58 1.572 1.555 1.52 1.455 1.344 1.171 0.922 0.7767 
1.736 1.696 1.636 1.607 1.593 1.588 1.585 1.585 1.584 1.584 1.584 1.583 1.58 1.572 1.555 1.52 1.455 1.344 1.171 0.922 0.7767 
1.736 1.696 1.636 1.607 1.593 1.588 1.585 1.585 1.584 1.584 1.584 1.583 1.58 1.572 1.555 1.52 1.455 1.344 1.171 0.922 0.7767 
1.736 1.696 1.636 1.607 1.593 1.588 1.585 1.585 1.584 1.584 1.584 1.583 1.58 1.572 1.555 1.52 1.455 1.344 1.171 0.922 0.7767 
1.736 1.696 1.636 1.607 1.593 1.588 1.585 1.585 1.584 1.584 1.584 1.583 1.58 1.572 1.555 1.52 1.455 1.344 1.171 0.922 0.7767 
1.736 1.696 1.636 1.607 1.593 1.588 1.585 1.585 1.584 1.584 1.584 1.583 1.58 1.572 1.555 1.52 1.455 1.344 1.171 0.922 0.7767 
1.736 1.696 1.636 1.607 1.593 1.588 1.585 1.585 1.584 1.584 1.584 1.583 1.58 1.572 1.555 1.52 1.455 1.344 1.171 0.922 0.7767 
1.736 1.696 1.636 1.607 1.593 1.588 1.585 1.585 1.584 1.584 1.584 1.583 1.58 1.572 1.555 1.52 1.455 1.344 1.171 0.922 0.7767 
1.736 1.696 1.636 1.607 1.593 1.588 1.585 1.585 1.584 1.584 1.584 1.583 1.58 1.572 1.555 1.52 1.455 1.344 1.171 0.922 0.7767 
1.736 1.696 1.636 1.607 1.593 1.588 1.585 1.585 1.584 1.584 1.584 1.583 1.58 1.572 1.555 1.52 1.455 1.344 1.171 0.922 0.7767 
1.736 1.696 1.636 1.607 1.593 1.588 1.585 1.585 1.584 1.584 1.584 1.583 1.58 1.572 1.555 1.52 1.455 1.344 1.171 0.922 0.7767 
1.736 1.696 1.636 1.607 1.593 1.588 1.585 1.585 1.584 1.584 1.584 1.583 1.58 1.572 1.555 1.52 1.455 1.344 1.171 0.922 0.7767 
1.736 1.696 1.636 1.607 1.593 1.588 1.585 1.585 1.584 1.584 1.584 1.583 1.58 1.572 1.555 1.52 1.455 1.344 1.171 0.922 0.7767 
1.736 1.696 1.636 1.607 1.593 1.588 1.585 1.585 1.584 1.584 1.584 1.583 1.58 1.572 1.555 1.52 1.455 1.344 1.171 0.922 0.7767 
1.736 1.696 1.636 1.607 1.593 1.588 1.585 1.585 1.584 1.584 1.584 1.583 1.58 1.572 1.555 1.52 1.455 1.344 1.171 0.922 0.7767 
1.736 1.696 1.636 1.607 1.593 1.588 1.585 1.585 1.584 1.584 1.584 1.583 1.58 1.572 1.555 1.52 1.455 1.344 1.171 0.922 0.7767 
1.736 1.696 1.636 1.607 1.593 1.588 1.585 1.585 1.584 1.584 1.584 1.583 1.58 1.572 1.555 1.52 1.455 1.344 1.171 0.922 0.7767 
1.736 1.696 1.636 1.607 1.593 1.588 1.585 1.585 1.584 1.584 1.584 1.583 1.58 1.572 1.555 1.52 1.455 1.344 1.171 0.922 0.7767 
1.736 1.696 1.636 1.607 1.593 1.588 1.585 1.585 1.584 1.584 1.584 1.583 1.58 1.572 1.555 1.52 1.455 1.344 1.171 0.922 0.7767 
1.736 1.696 1.636 1.607 1.593 1.588 1.585 1.585 1.584 1.584 1.584 1.583 1.58 1.572 1.555 1.52 1.455 1.344 1.171 0.922 0.7767 
1.736 1.696 1.636 1.607 1.593 1.588 1.585 1.585 1.584 1.584 1.584 1.583 1.58 1.572 1.555 1.52 1.455 1.344 1.171 0.922 0.7767 
1.736 1.696 1.636 1.607 1.593 1.588 1.585 1.585 1.584 1.584 1.584 1.583 1.58 1.572 1.555 1.52 1.455 1.344 1.171 0.922 0.7767 
1.736 1.696 1.636 1.607 1.593 1.588 1.585 1.585 1.584 1.584 1.584 1.583 1.58 1.572 1.555 1.52 1.455 1.344 1.171 0.922 0.7767 
1.736 1.696 1.636 1.607 1.593 1.588 1.585 1.585 1.584 1.584 1.584 1.583 1.58 1.572 1.555 1.52 1.455 1.344 1.171 0.922 0.7767 
1.736 1.696 1.636 1.607 1.593 1.588 1.585 1.585 1.584 1.584 1.584 1.583 1.58 1.572 1.555 1.52 1.455 1.344 1.171 0.922 0.7767 
1.736 1.696 1.636 1.607 1.593 1.588 1.585 1.585 1.584 1.584 1.584 1.583 1.58 1.572 1.555 1.52 1.455 1.344 1.171 0.922 0.7767 
1.736 1.696 1.636 1.607 1.593 1.588 1.585 1.585 1.584 1.584 1.584 1.583 1.58 1.572 1.555 1.52 1.455 1.344 1.171 0.922 0.7767 
1.736 1.696 1.636 1.607 1.593 1.588 1.585 1.585 1.584 1.584 1.584 1.583 1.58 1.572 1.555 1.52 1.455 1.344 1.171 0.922 0.7767 
1.736 1.696 1.636 1.607 1.593 1.588 1.585 1.585 1.584 1.584 1.584 1.583 1.58 1.572 1.555 1.52 1.455 1.344 1.171 0.922 0.7767 
1.736 1.696 1.636 1.607 1.593 1.588 1.585 1.585 1.584 1.584 1.584 1.583 1.58 1.572 1.555 1.52 1.455 1.344 1.171 0.922 0.7767 
1.736 1.696 1.636 1.607 1.593 1.588 1.585 1.585 1.584 1.584 1.584 1.583 1.58 1.572 1.555 1.52 1.455 1.344 1.171 0.922 0.7767 
1.736 1.696 1.636 1.607 1.593 1.588 1.585 1.585 1.584 1.584 1.584 1.583 1.58 1.572 1.555 1.52 1.455 1.344 1.171 0.922 0.7767 
1.736 1.696 1.636 1.607 1.593 1.588 1.585 1.585 1.584 1.584 1.584 1.583 1.58 1.572 1.555 1.52 1.455 1.344 1.171 0.922 0.7767 
1.736 1.696 1.636 1.607 1.593 1.588 1.585 1.585 1.584 1.584 1.584 1.583 1.58 1.572 1.555 1.52 1.455 1.344 1.171 0.922 0.7767 
1.736 1.696 1.636 1.607 1.593 1.588 1.585 1.585 1.584 1.584 1.584 1.583 1.58 1.572 1.555 1.52 1.455 1.344 1.171 0.922 0.7767 
1.736 1.696 1.636 1.607 1.593 1.588 1.585 1.585 1.584 1.584 1.584 1.583 1.58 1.572 1.555 1.52 1.455 1.344 1.171 0.922 0.7767 
</DataArray>
<DataArray Name="ne" NumberOfComponents="1" format="ascii" type="Float64">
0.6823 0.8389 0.9211 0.9631 0.9839 0.9935 0.9976 0.9992 0.9997 0.9997 0.999 0.9969 0.9913 0.9786 0.9528 0.9063 0.8318 0.7245 0.5849 0.4188 0.2281 
0.6823 0.8389 0.9211 0.9631 0.9839 0.9935 0.9976 0.9992 0.9997 0.9997 0.999 0.9969 0.9913 0.9786 0.9528 0.9063 0.8318 0.7245 0.5849 0.4188 0.2281 
0.6823 0.8389 0.9211 0.9631 0.9839 0.9935 0.9976 0.9992 0.9997 0.9997 0.999 0.9969 0.9913 0.9786 0.9528 0.9063 0.8318 0.7245 0.5849 0.4188 0.2281 
0.6823 0.8389 0.9211 0.9631 0.9839 0.9935 0.9976 0.9992 0.9997 0.9997 0.999 0.9969 0.9913 0.9786 0.9528 0.9063 0.8318 0.7245 0.5849 0.4188 0.2281 
0.6823 0.8389 0.9211 0.9631 0.9839 0.9935 0.9976 0.9992 0.9997 0.9997 0.999 0.9969 0.9913 0.9786 0.9528 0.9063 0.8318 0.7245 0.5849 0.4188 0.2281 
0.6823 0.8389 0.9211 0.9631 0.9839 0.9935 0.9976 0.9992 0.9997 0.9997 0.999 0.9969 0.9913 0.9786 0.9528 0.9063 0.8318 0.7245 0.5849 0.4188 0.2281 
0.6823 0.8389 0.9211 0.9631 0.9839 0.9935 0.9976 0.9992 0.9997 0.9997 0.999 0.9969 0.9913 0.9786 0.9528 0.9063 0.8318 0.7245 0.5849 0.4188 0.2281 
0.6823 0.8389 0.9211 0.9631 0.9839 0.9935 0.9976 0.9992 0.9997 0.9997 0.999 0.9969 0.9913 0.9786 0.9528 0.9063 0.8318 0.7245 0.5849 0.4188 0.2281 
0.6823 0.8389 0.9211 0.9631 0.9839 0.9935 0.9976 0.9992 0.9997 0.9997 0.999 0.9969 0.9913 0.9786 0.9528 0.9063 0.8318 0.7245 0.5849 0.4188 0.2281 
0.6823 0.8389 0.9211 0.9631 0.9839 0.9935 0.9976 0.9992 0.9997 0.9997 0.999 0.9969 0.9913 0.9786 0.9528 0.9063 0.8318 0.7245 0.5849 0.4188 0.2281 
0.6823 0.8389 0.9211 0.9631 0.9839 0.9935 0.9976 0.9992 0.9997 0.9997 0.999 0.9969 0.9913 0.9786 0.9528 0.9063 0.8318 0.7245 0.5849 0.4188 0.2281 
0.6823 0.8389 0.9211 0.9631 0.9839 0.9935 0.9976 0.9992 0.9997 0.9997 0.999 0.9969 0.9913 0.9786 0.9528 0.9063 0.8318 0.7245 0.5849 0.4188 0.2281 
0.6823 0.8389 0.9211 0.9631 0.9839 0.9935 0.9976 0.9992 0.9997 0.9997 0.999 0.9969 0.9913 0.9786 0.9528 0.9063 0.8318 0.7245 0.5849 0.4188 0.2281 
0.6823 0.8389 0.9211 0.9631 0.9839 0.9935 0.9976 0.9992 0.9997 0.9997 0.999 0.9969 0.9913 0.9786 0.9528 0.9063 0.8318 0.7245 0.5849 0.4188 0.2281 
0.6823 0.8389 0.9211 0.9631 0.9839 0.9935 0.9976 0.9992 0.9997 0.9997 0.999 0.9969 0.9913 0.9786 0.9528 0.9063 0.8318 0.7245 0.5849 0.4188 0.2281 
0.6823 0.8389 0.9211 0.9631 0.9839 0.9935 0.9976 0.9992 0.9997 0.9997 0.999 0.9969 0.9913 0.9786 0.9528 0.9063 0.8318 0.7245 0.5849 0.4188 0.2281 
0.6823 0.8389 0.9211 0.9631 0.9839 0.9935 0.9976 0.9992 0.9997 0.9997 0.999 0.9969 0.9913 0.9786 0.9528 0.9063 0.8318 0.7245 0.5849 0.4188 0.2281 
0.6823 0.8389 0.9211 0.9631 0.9839 0.9935 0.9976 0.9992 0.9997 0.9997 0.999 0.9969 0.9913 0.9786 0.9528 0.9063 0.8318 0.7245 0.5849 0.4188 0.2281 
0.6823 0.8389 0.9211 0.9631 0.9839 0.9935 0.9976 0.9992 0.9997 0.9997 0.999 0.9969 0.9913 0.9786 0.9528 0.9063 0.8318 0.7245 0.5849 0.4188 0.2281 
0.6823 0.8389 0.9211 0.9631 0.9839 0.9935 0.9976 0.9992 0.9997 0.9997 0.999 0.9969 0.9913 0.9786 0.9528 0.9063 0.8318 0.7245 0.5849 0.4188 0.2281 
0.6823 0.8389 0.9211 0.9631 0.9839 0.9935 0.9976 0.9992 0.9997 0.9997 0.999 0.9969 0.9913 0.9786 0.9528 0.9063 0.8318 0.7245 0.5849 0.4188 0.2281 
0.6823 0.8389 0.9211 0.9631 0.9839 0.9935 0.9976 0.9992 0.9997 0.9997 0.999 0.9969 0.9913 0.9786 0.9528 0.9063 0.8318 0.7245 0.5849 0.4188 0.2281 
0.6823 0.8389 0.9211 0.9631 0.9839 0.9935 0.9976 0.9992 0.9997 0.9997 0.999 0.9969 0.9913 0.9786 0.9528 0.9063 0.8318 0.7245 0.5849 0.4188 0.2281 
0.6823 0.8389 0.9211 0.9631 0.9839 0.9935 0.9976 0.9992 0.9997 0.9997 0.999 0.9969 0.9913 0.9786 0.9528 0.9063 0.8318 0.7245 0.5849 0.4188 0.2281 
0.6823 0.8389 0.9211 0.9631 0.9839 0.9935 0.9976 0.9992 0.9997 0.9997 0.999 0.9969 0.9913 0.9786 0.9528 0.9063 0.8318 0.7245 0.5849 0.4188 0.2281 
0.6823 0.8389 0.9211 0.9631 0.9839 0.9935 0.9976 0.9992 0.9997 0.9997 0.999 0.9969 0.9913 0.9786 0.9528 0.9063 0.8318 0.7245 0.5849 0.4188 0.2281 
0.6823 0.8389 0.9211 0.9631 0.9839 0.9935 0.9976 0.9992 0.9997 0.9997 0.999 0.9969 0.9913 0.9786 0.9528 0.9063 0.8318 0.7245 0.5849 0.4188 0.2281 
0.6823 0.8389 0.9211 0.9631 0.9839 0.9935 0.9976 0.9992 0.9997 0.9997 0.999 0.9969 0.9913 0.9786 0.9528 0.9063 0.8318 0.7245 0.5849 0.4188 0.2281 
0.6823 0.8389 0.9211 0.9631 0.9839 0.9935 0.9976 0.9992 0.9997 0.9997 0.999 0.9969 0.9913 0.9786 0.9528 0.9063 0.8318 0.7245 0.5849 0.4188 0.2281 
0.6823 0.8389 0.9211 0.9631 0.9839 0.9935 0.9976 0.9992 0.9997 0.9997 0.999 0.9969 0.9913 0.9786 0.9528 0.9063 0.8318 0.7245 0.5849 0.4188 0.2281 
0.6823 0.8389 0.9211 0.9631 0.9839 0.9935 0.9976 0.9992 0.9997 0.9997 0.999 0.9969 0.9913 0.9786 0.9528 0.9063 0.8318 0.7245 0.5849 0.4188 0.2281 
0.6823 0.8389 0.9211 0.9631 0.9839 0.9935 0.9976 0.9992 0.9997 0.9997 0.999 0.9969 0.9913 0.9786 0.9528 0.9063 0.8318 0.7245 0.5849 0.4188 0.2281 
0.6823 0.8389 0.9211 0.9631 0.9839 0.9935 0.9976 0.9992 0.9997 0.9997 0.999 0.9969 0.9913 0.9786 0.9528 0.9063 0.8318 0.7245 0.5849 0.4188 0.2281 
0.6823 0.8389 0.9211 0.9631 0.9839 0.9935 0.9976 0.9992 0.9997 0.9997 0.999 0.9969 0.9913 0.9786 0.9528 0.9063 0.8318 0.7245 0.5849 0.4188 0.2281 
0.6823 0.8389 0.9211 0.9631 0.9839 0.9935 0.9976 0.9992 0.9997 0.9997 0.999 0.9969 0.9913 0.9786 0.9528 0.9063 0.8318 0.7245 0.5849 0.4188 0.2281 
0.6823 0.8389 0.9211 0.9631 0.9839 0.9935 0.9976 0.9992 0.9997 0.9997 0.999 0.9969 0.9913 0.9786 0.9528 0.9063 0.8318 0.7245 0.5849 0.4188 0.2281 
0.6823 0.8389 0.9211 0.9631 0.9839 0.9935 0.9976 0.9992 0.9997 0.9997 0.999 0.9969 0.9913 0.9786 0.9528 0.9063 0.8318 0.7245 0.5849 0.4188 0.2281 
0.6823 0.8389 0.9211 0.9631 0.9839 0.9935 0.9976 0.9992 0.9997 0.9997 0.999 0.9969 0.9913 0.9786 0.9528 0.9063 0.8318 0.7245 0.5849 0.4188 0.2281 
0.6823 0.8389 0.9211 0.9631 0.9839 0.9935 0.9976 0.9992 0.9997 0.9997 0.999 0.9969 0.9913 0.9786 0.9528 0.9063 0.8318 0.7245 0.5849 0.4188 0.2281 
0.6823 0.8389 0.9211 0.9631 0.9839 0.9935 0.9976 0.9992 0.9997 0.9997 0.999 0.9969 0.9913 0.9786 0.9528 0.9063 0.8318 0.7245 0.5849 0.4188 0.2281 
0.6823 0.8389 0.9211 0.9631 0.9839 0.9935 0.9976 0.9992 0.9997 0.9997 0.999 0.9969 0.9913 0.9786 0.9528 0.9063 0.8318 0.7245 0.5849 0.4188 0.2281 
</DataArray>
</PointData>
</Piece>
</ImageData>
</VTKFile>
