<VTKFile type="ImageData">
<ImageData Origin="0 -10 0" Spacing="0.5 0.5 1" WholeExtent="0 20 0 40 0 0">
<Piece Extent="0 20 0 40 0 0">
<PointData>
<DataArray Name="f" NumberOfComponents="1" format="ascii" type="Float64">
2.13e-10 3.601e-12 1.285e-16 2.789e-19 0 0 0 0 0 0 0 0 0 0 0 0 0 0 0 0 0 
6.908e-08 1.532e-09 7.822e-13 7.173e-15 0 0 0 0 0 0 0 0 0 0 0 0 0 0 0 0 0 
1.722e-06 7.608e-08 5.611e-10 1.275e-11 6.703e-16 2.909e-18 0 0 0 0 0 0 0 0 0 0 0 0 0 0 0 
2.554e-05 2.812e-06 1.588e-07 4.709e-09 3.557e-12 6.562e-14 6.971e-16 3.433e-18 0 0 0 0 0 0 0 0 0 0 0 0 0 
0.0001509 2.965e-05 3.318e-06 1.975e-07 2.235e-09 1.023e-10 3.28e-12 6.89e-14 8.5e-16 4.988e-18 0 0 0 0 0 0 0 0 0 0 0 
0.0004956 0.0001697 3.646e-05 4.771e-06 3.158e-07 1.636e-08 9.915e-10 4.253e-11 1.214e-12 2.078e-14 1.752e-16 4.472e-19 0 0 0 0 0 0 0 0 0 
0.000947 0.0005144 0.0001825 4.146e-05 5.532e-06 5.383e-07 4.958e-08 3.237e-09 1.41e-10 3.696e-12 4.793e-14 1.931e-16 4.204e-20 0 0 0 0 0 0 0 0 
0.001154 0.0009565 0.0005308 0.0001942 4.48e-05 7.364e-06 9.876e-07 9.371e-08 5.942e-09 2.282e-10 4.401e-12 2.763e-14 1.163e-17 0 0 0 0 0 0 0 0 
0.0009277 0.001154 0.0009749 0.0005525 0.0002049 5.301e-05 1.022e-05 1.39e-06 1.264e-07 7.018e-09 1.996e-10 1.951e-12 1.588e-15 0 0 0 0 0 0 0 0 
0.0004947 0.000919 0.001168 0.001003 0.0005751 0.0002255 6.249e-05 1.214e-05 1.58e-06 1.265e-07 5.304e-09 8.083e-11 1.272e-13 0 0 0 0 0 0 0 0 
0.0001722 0.0004806 0.0009178 0.001186 0.001032 0.0006037 0.0002421 6.751e-05 1.261e-05 1.461e-06 9.065e-08 2.164e-09 6.578e-12 0 0 0 0 0 0 0 0 
3.768e-05 0.000161 0.000467 0.0009129 0.001203 0.001051 0.000618 0.0002497 6.745e-05 1.14e-05 1.054e-06 3.968e-08 2.326e-10 0 0 0 0 0 0 0 0 
4.875e-06 3.299e-05 0.0001491 0.0004494 0.0009086 0.001204 0.001058 0.000628 0.0002483 6.184e-05 8.622e-06 5.167e-07 5.836e-09 7.791e-19 0 0 0 0 0 0 0 
3.377e-07 3.846e-06 2.826e-05 0.0001365 0.0004354 0.0009013 0.001213 0.001079 0.0006345 0.0002366 5.045e-05 4.877e-06 1.062e-07 4.861e-16 0 0 0 0 0 0 0 
1.063e-08 2.28e-07 2.91e-06 2.408e-05 0.0001267 0.0004304 0.0009179 0.001251 0.001118 0.0006363 0.0002116 3.361e-05 1.416e-06 2.129e-13 1.466e-19 0 0 0 0 0 0 
1.112e-10 5.738e-09 1.4e-07 2.24e-06 2.075e-05 0.0001252 0.0004414 0.0009497 0.001322 0.001179 0.000628 0.000168 1.386e-05 6.444e-11 9.648e-16 6.143e-19 0 0 0 0 0 
1.631e-13 4.5e-11 2.34e-09 9.403e-08 1.672e-06 2.059e-05 0.0001266 0.0004456 0.0009986 0.001441 0.001273 0.0005951 9.84e-05 1.303e-08 2.406e-12 2.481e-15 7.163e-19 0 0 0 0 
1.843e-17 4.489e-14 5.909e-12 1.347e-09 5.072e-08 1.698e-06 1.942e-05 0.0001165 0.0004378 0.001068 0.00164 0.001415 0.0004939 1.652e-06 2.31e-09 3.935e-12 1.832e-15 1.482e-19 0 0 0 
0 0 1.29e-15 2.779e-12 2.712e-10 5.64e-08 1.276e-06 1.38e-05 9.214e-05 0.0004045 0.001159 0.002006 0.001648 0.0001157 8.222e-07 2.496e-09 1.978e-12 2.663e-16 0 0 0 
0 0 0 0 1.804e-13 3.663e-10 1.792e-08 4.027e-07 5.534e-06 5.039e-05 0.0003087 0.001237 0.002959 0.003254 9.906e-05 6.313e-07 9.331e-10 2.222e-13 3.913e-18 0 0 
0 0 0 0 0 0 0 0 2.671e-19 1.085e-14 4.899e-11 5.2e-08 1.987e-05 0.00361 0.003376 6.386e-05 2.012e-07 9.087e-11 2.927e-15 0 0 
0 0 0 0 0 0 0 0 0 1.236e-17 7.575e-14 1.079e-10 5.443e-08 1.269e-05 0.003253 0.001569 0.0004151 7.146e-05 8.252e-06 6.293e-07 3.484e-08 
0 0 0 0 0 0 0 0 0 0 5.996e-17 1.132e-13 7.501e-11 2.269e-08 0.001436 0.002087 0.001319 0.0004893 0.0001171 1.833e-05 2.052e-06 
0 0 0 0 0 0 0 0 0 0 2.212e-20 5.448e-17 4.693e-14 1.835e-11 0.0003808 0.001299 0.001662 0.00116 0.0005027 0.0001405 2.758e-05 
0 0 0 0 0 0 0 0 0 0 0 1.078e-20 1.192e-17 5.966e-15 6.728e-05 0.0004925 0.001171 0.001431 0.001054 0.000496 0.0001615 
0 0 0 0 0 0 0 0 0 0 0 0 0 6.858e-19 8.335e-06 0.0001261 0.0005292 0.001078 0.001292 0.0009824 0.0005102 
0 0 0 0 0 0 0 0 0 0 0 0 0 0 7.425e-07 2.29e-05 0.0001638 0.0005377 0.001013 0.001205 0.0009667 
0 0 0 0 0 0 0 0 0 0 0 0 0 0 4.805e-08 3.011e-06 3.585e-05 0.0001848 0.0005342 0.0009685 0.001167 
0 0 0 0 0 0 0 0 0 0 0 0 0 0 2.256e-09 2.882e-07 5.616e-06 4.462e-05 0.0001939 0.0005247 0.0009302 
0 0 0 0 0 0 0 0 0 0 0 0 0 0 7.596e-11 1.99e-08 6.275e-07 7.572e-06 4.875e-05 0.0001937 0.0004965 
0 0 0 0 0 0 0 0 0 0 0 0 0 0 1.792e-12 9.708e-10 4.911e-08 8.907e-07 8.401e-06 4.845e-05 0.0001773 
0 0 0 0 0 0 0 0 0 0 0 0 0 0 2.85e-14 3.222e-11 2.601e-09 7.04e-08 9.657e-07 8.02e-06 4.156e-05 
0 0 0 0 0 0 0 0 0 0 0 0 0 0 2.881e-16 6.853e-13 8.805e-11 3.543e-09 7.044e-08 8.395e-07 6.149e-06 
0 0 0 0 0 0 0 0 0 0 0 0 0 0 1.678e-18 8.476e-15 1.732e-12 1.036e-10 2.993e-09 5.133e-08 5.347e-07 
0 0 0 0 0 0 0 0 0 0 0 0 0 0 0 5.116e-17 1.665e-14 1.494e-12 6.344e-11 1.588e-09 2.401e-08 
0 0 0 0 0 0 0 0 0 0 0 0 0 0 0 1.011e-19 5.297e-17 7.341e-15 4.784e-13 1.831e-11 4.267e-10 
0 0 0 0 0 0 0 0 0 0 0 0 0 0 0 0 0 1.303e-18 2.626e-16 2.394e-14 1.252e-12 
0 0 0 0 0 0 0 0 0 0 0 0 0 0 0 0 0 0 0 7.741e-19 1.896e-16 
0 0 0 0 0 0 0 0 0 0 0 0 0 0 0 0 0 0 0 0 0 
0 0 0 0 0 0 0 0 0 0 0 0 0 0 0 0 0 0 0 0 0 
0 0 0 0 0 0 0 0 0 0 0 0 0 0 0 0 0 0 0 0 0 
</DataArray>
<DataArray Name="E" NumberOfComponents="1" format="ascii" type="Float64">
6.237 5.988 5.489 4.99 4.492 3.993 3.494 2.995 2.497 1.998 1.499 1.001 0.5021 0.003733 -0.4942 -0.9923 -1.491 -1.99 -2.488 -2.987 -3.236 
6.237 5.988 5.489 4.99 4.492 3.993 3.494 2.995 2.497 1.998 1.499 1.001 0.5021 0.003733 -0.4942 -0.9923 -1.491 -1.99 -2.488 -2.987 -3.236 
6.237 5.988 5.489 4.99 4.492 3.993 3.494 2.995 2.497 1.998 1.499 1.001 0.5021 0.003733 -0.4942 -0.9923 -1.491 -1.99 -2.488 -2.987 -3.236 
6.237 5.988 5.489 4.99 4.492 3.993 3.494 2.995 2.497 1.998 1.499 1.001 0.5021 0.003733 -0.4942 -0.9923 -1.491 -1.99 -2.488 -2.987 -3.236 
6.237 5.988 5.489 4.99 4.492 3.993 3.494 2.995 2.497 1.998 1.499 1.001 0.5021 0.003733 -0.4942 -0.9923 -1.491 -1.99 -2.488 -2.987 -3.236 
6.237 5.988 5.489 4.99 4.492 3.993 3.494 2.995 2.497 1.998 1.499 1.001 0.5021 0.003733 -0.4942 -0.9923 -1.491 -1.99 -2.488 -2.987 -3.236 
6.237 5.988 5.489 4.99 4.492 3.993 3.494 2.995 2.497 1.998 1.499 1.001 0.5021 0.003733 -0.4942 -0.9923 -1.491 -1.99 -2.488 -2.987 -3.236 
6.237 5.988 5.489 4.99 4.492 3.993 3.494 2.995 2.497 1.998 1.499 1.001 0.5021 0.003733 -0.4942 -0.9923 -1.491 -1.99 -2.488 -2.987 -3.236 
6.237 5.988 5.489 4.99 4.492 3.993 3.494 2.995 2.497 1.998 1.499 1.001 0.5021 0.003733 -0.4942 -0.9923 -1.491 -1.99 -2.488 -2.987 -3.236 
6.237 5.988 5.489 4.99 4.492 3.993 3.494 2.995 2.497 1.998 1.499 1.001 0.5021 0.003733 -0.4942 -0.9923 -1.491 -1.99 -2.488 -2.987 -3.236 
6.237 5.988 5.489 4.99 4.492 3.993 3.494 2.995 2.497 1.998 1.499 1.001 0.5021 0.003733 -0.4942 -0.9923 -1.491 -1.99 -2.488 -2.987 -3.236 
6.237 5.988 5.489 4.99 4.492 3.993 3.494 2.995 2.497 1.998 1.499 1.001 0.5021 0.003733 -0.4942 -0.9923 -1.491 -1.99 -2.488 -2.987 -3.236 
6.237 5.988 5.489 4.99 4.492 3.993 3.494 2.995 2.497 1.998 1.499 1.001 0.5021 0.003733 -0.4942 -0.9923 -1.491 -1.99 -2.488 -2.987 -3.236 
6.237 5.988 5.489 4.99 4.492 3.993 3.494 2.995 2.497 1.998 1.499 1.001 0.5021 0.003733 -0.4942 -0.9923 -1.491 -1.99 -2.488 -2.987 -3.236 
6.237 5.988 5.489 4.99 4.492 3.993 3.494 2.995 2.497 1.998 1.499 1.001 0.5021 0.003733 -0.4942 -0.9923 -1.491 -1.99 -2.488 -2.987 -3.236 
6.237 5.988 5.489 4.99 4.492 3.993 3.494 2.995 2.497 1.998 1.499 1.001 0.5021 0.003733 -0.4942 -0.9923 -1.491 -1.99 -2.488 -2.987 -3.236 
6.237 5.988 5.489 4.99 4.492 3.993 3.494 2.995 2.497 1.998 1.499 1.001 0.5021 0.003733 -0.4942 -0.9923 -1.491 -1.99 -2.488 -2.987 -3.236 
6.237 5.988 5.489 4.99 4.492 3.993 3.494 2.995 2.497 1.998 1.499 1.001 0.5021 0.003733 -0.4942 -0.9923 -1.491 -1.99 -2.488 -2.987 -3.236 
6.237 5.988 5.489 4.99 4.492 3.993 3.494 2.995 2.497 1.998 1.499 1.001 0.5021 0.003733 -0.4942 -0.9923 -1.491 -1.99 -2.488 -2.987 -3.236 
6.237 5.988 5.489 4.99 4.492 3.993 3.494 2.995 2.497 1.998 1.499 1.001 0.5021 0.003733 -0.4942 -0.9923 -1.491 -1.99 -2.488 -2.987 -3.236 
6.237 5.988 5.489 4.99 4.492 3.993 3.494 2.995 2.497 1.998 1.499 1.001 0.5021 0.003733 -0.4942 -0.9923 -1.491 -1.99 -2.488 -2.987 -3.236 
6.237 5.988 5.489 4.99 4.492 3.993 3.494 2.995 2.497 1.998 1.499 1.001 0.5021 0.003733 -0.4942 -0.9923 -1.491 -1.99 -2.488 -2.987 -3.236 
6.237 5.988 5.489 4.99 4.492 3.993 3.494 2.995 2.497 1.998 1.499 1.001 0.5021 0.003733 -0.4942 -0.9923 -1.491 -1.99 -2.488 -2.987 -3.236 
6.237 5.988 5.489 4.99 4.492 3.993 3.494 2.995 2.497 1.998 1.499 1.001 0.5021 0.003733 -0.4942 -0.9923 -1.491 -1.99 -2.488 -2.987 -3.236 
6.237 5.988 5.489 4.99 4.492 3.993 3.494 2.995 2.497 1.998 1.499 1.001 0.5021 0.003733 -0.4942 -0.9923 -1.491 -1.99 -2.488 -2.987 -3.236 
6.237 5.988 5.489 4.99 4.492 3.993 3.494 2.995 2.497 1.998 1.499 1.001 0.5021 0.003733 -0.4942 -0.9923 -1.491 -1.99 -2.488 -2.987 -3.236 
6.237 5.988 5.489 4.99 4.492 3.993 3.494 2.995 2.497 1.998 1.499 1.001 0.5021 0.003733 -0.4942 -0.9923 -1.491 -1.99 -2.488 -2.987 -3.236 
6.237 5.988 5.489 4.99 4.492 3.993 3.494 2.995 2.497 1.998 1.499 1.001 0.5021 0.003733 -0.4942 -0.9923 -1.491 -1.99 -2.488 -2.987 -3.236 
6.237 5.988 5.489 4.99 4.492 3.993 3.494 2.995 2.497 1.998 1.499 1.001 0.5021 0.003733 -0.4942 -0.9923 -1.491 -1.99 -2.488 -2.987 -3.236 
6.237 5.988 5.489 4.99 4.492 3.993 3.494 2.995 2.497 1.998 1.499 1.001 0.5021 0.003733 -0.4942 -0.9923 -1.491 -1.99 -2.488 -2.987 -3.236 
6.237 5.988 5.489 4.99 4.492 3.993 3.494 2.995 2.497 1.998 1.499 1.001 0.5021 0.003733 -0.4942 -0.9923 -1.491 -1.99 -2.488 -2.987 -3.236 
6.237 5.988 5.489 4.99 4.492 3.993 3.494 2.995 2.497 1.998 1.499 1.001 0.5021 0.003733 -0.4942 -0.9923 -1.491 -1.99 -2.488 -2.987 -3.236 
6.237 5.988 5.489 4.99 4.492 3.993 3.494 2.995 2.497 1.998 1.499 1.001 0.5021 0.003733 -0.4942 -0.9923 -1.491 -1.99 -2.488 -2.987 -3.236 
6.237 5.988 5.489 4.99 4.492 3.993 3.494 2.995 2.497 1.998 1.499 1.001 0.5021 0.003733 -0.4942 -0.9923 -1.491 -1.99 -2.488 -2.987 -3.236 
6.237 5.988 5.489 4.99 4.492 3.993 3.494 2.995 2.497 1.998 1.499 1.001 0.5021 0.003733 -0.4942 -0.9923 -1.491 -1.99 -2.488 -2.987 -3.236 
6.237 5.988 5.489 4.99 4.492 3.993 3.494 2.995 2.497 1.998 1.499 1.001 0.5021 0.003733 -0.4942 -0.9923 -1.491 -1.99 -2.488 -2.987 -3.236 
6.237 5.988 5.489 4.99 4.492 3.993 3.494 2.995 2.497 1.998 1.499 1.001 0.5021 0.003733 -0.4942 -0.9923 -1.491 -1.99 -2.488 -2.987 -3.236 
6.237 5.988 5.489 4.99 4.492 3.993 3.494 2.995 2.497 1.998 1.499 1.001 0.5021 0.003733 -0.4942 -0.9923 -1.491 -1.99 -2.488 -2.987 -3.236 
6.237 5.988 5.489 4.99 4.492 3.993 3.494 2.995 2.497 1.998 1.499 1.001 0.5021 0.003733 -0.4942 -0.9923 -1.491 -1.99 -2.488 -2.987 -3.236 
6.237 5.988 5.489 4.99 4.492 3.993 3.494 2.995 2.497 1.998 1.499 1.001 0.5021 0.003733 -0.4942 -0.9923 -1.491 -1.99 -2.488 -2.987 -3.236 
6.237 5.988 5.489 4.99 4.492 3.993 3.494 2.995 2.497 1.998 1.499 1.001 0.5021 0.003733 -0.4942 -0.9923 -1.491 -1.99 -2.488 -2.987 -3.236 
</DataArray>
<DataArray Name="ne" NumberOfComponents="1" format="ascii" type="Float64">
0.002331 0.002345 0.002366 0.002388 0.002417 0.00245 0.002497 0.002551 0.002617 0.002699 0.002801 0.002899 0.002786 0.003611 0.004582 0.002997 0.002801 0.002642 0.002517 0.002419 0.002363 
0.002331 0.002345 0.002366 0.002388 0.002417 0.00245 0.002497 0.002551 0.002617 0.002699 0.002801 0.002899 0.002786 0.003611 0.004582 0.002997 0.002801 0.002642 0.002517 0.002419 0.002363 
0.002331 0.002345 0.002366 0.002388 0.002417 0.00245 0.002497 0.002551 0.002617 0.002699 0.002801 0.002899 0.002786 0.003611 0.004582 0.002997 0.002801 0.002642 0.002517 0.002419 0.002363 
0.002331 0.002345 0.002366 0.002388 0.002417 0.00245 0.002497 0.002551 0.002617 0.002699 0.002801 0.002899 0.002786 0.003611 0.004582 0.002997 0.002801 0.002642 0.002517 0.002419 0.002363 
0.002331 0.002345 0.002366 0.002388 0.002417 0.00245 0.002497 0.002551 0.002617 0.002699 0.002801 0.002899 0.002786 0.003611 0.004582 0.002997 0.002801 0.002642 0.002517 0.002419 0.002363 
0.002331 0.002345 0.002366 0.002388 0.002417 0.00245 0.002497 0.002551 0.002617 0.002699 0.002801 0.002899 0.002786 0.003611 0.004582 0.002997 0.002801 0.002642 0.002517 0.002419 0.002363 
0.002331 0.002345 0.002366 0.002388 0.002417 0.00245 0.002497 0.002551 0.002617 0.002699 0.002801 0.002899 0.002786 0.003611 0.004582 0.002997 0.002801 0.002642 0.002517 0.002419 0.002363 
0.002331 0.002345 0.002366 0.002388 0.002417 0.00245 0.002497 0.002551 0.002617 0.002699 0.002801 0.002899 0.002786 0.003611 0.004582 0.002997 0.002801 0.002642 0.002517 0.002419 0.002363 
0.002331 0.002345 0.002366 0.002388 0.002417 0.00245 0.002497 0.002551 0.002617 0.002699 0.002801 0.002899 0.002786 0.003611 0.004582 0.002997 0.002801 0.002642 0.002517 0.002419 0.002363 
0.002331 0.002345 0.002366 0.002388 0.002417 0.00245 0.002497 0.002551 0.002617 0.002699 0.002801 0.002899 0.002786 0.003611 0.004582 0.002997 0.002801 0.002642 0.002517 0.002419 0.002363 
0.002331 0.002345 0.002366 0.002388 0.002417 0.00245 0.002497 0.002551 0.002617 0.002699 0.002801 0.002899 0.002786 0.003611 0.004582 0.002997 0.002801 0.002642 0.002517 0.002419 0.002363 
0.002331 0.002345 0.002366 0.002388 0.002417 0.00245 0.002497 0.002551 0.002617 0.002699 0.002801 0.002899 0.002786 0.003611 0.004582 0.002997 0.002801 0.002642 0.002517 0.002419 0.002363 
0.002331 0.002345 0.002366 0.002388 0.002417 0.00245 0.002497 0.002551 0.002617 0.002699 0.002801 0.002899 0.002786 0.003611 0.004582 0.002997 0.002801 0.002642 0.002517 0.002419 0.002363 
0.002331 0.002345 0.002366 0.002388 0.002417 0.00245 0.002497 0.002551 0.002617 0.002699 0.002801 0.002899 0.002786 0.003611 0.004582 0.002997 0.002801 0.002642 0.002517 0.002419 0.002363 
0.002331 0.002345 0.002366 0.002388 0.002417 0.00245 0.002497 0.002551 0.002617 0.002699 0.002801 0.002899 0.002786 0.003611 0.004582 0.002997 0.002801 0.002642 0.002517 0.002419 0.002363 
0.002331 0.002345 0.002366 0.002388 0.002417 0.00245 0.002497 0.002551 0.002617 0.002699 0.002801 0.002899 0.002786 0.003611 0.004582 0.002997 0.002801 0.002642 0.002517 0.002419 0.002363 
0.002331 0.002345 0.002366 0.002388 0.002417 0.00245 0.002497 0.002551 0.002617 0.002699 0.002801 0.002899 0.002786 0.003611 0.004582 0.002997 0.002801 0.002642 0.002517 0.002419 0.002363 
0.002331 0.002345 0.002366 0.002388 0.002417 0.00245 0.002497 0.002551 0.002617 0.002699 0.002801 0.002899 0.002786 0.003611 0.004582 0.002997 0.002801 0.002642 0.002517 0.002419 0.002363 
0.002331 0.002345 0.002366 0.002388 0.002417 0.00245 0.002497 0.002551 0.002617 0.002699 0.002801 0.002899 0.002786 0.003611 0.004582 0.002997 0.002801 0.002642 0.002517 0.002419 0.002363 
0.002331 0.002345 0.002366 0.002388 0.002417 0.00245 0.002497 0.002551 0.002617 0.002699 0.002801 0.002899 0.002786 0.003611 0.004582 0.002997 0.002801 0.002642 0.002517 0.002419 0.002363 
0.002331 0.002345 0.002366 0.002388 0.002417 0.00245 0.002497 0.002551 0.002617 0.002699 0.002801 0.002899 0.002786 0.003611 0.004582 0.002997 0.002801 0.002642 0.002517 0.002419 0.002363 
0.002331 0.002345 0.002366 0.002388 0.002417 0.00245 0.002497 0.002551 0.002617 0.002699 0.002801 0.002899 0.002786 0.003611 0.004582 0.002997 0.002801 0.002642 0.002517 0.002419 0.002363 
0.002331 0.002345 0.002366 0.002388 0.002417 0.00245 0.002497 0.002551 0.002617 0.002699 0.002801 0.002899 0.002786 0.003611 0.004582 0.002997 0.002801 0.002642 0.002517 0.002419 0.002363 
0.002331 0.002345 0.002366 0.002388 0.002417 0.00245 0.002497 0.002551 0.002617 0.002699 0.002801 0.002899 0.002786 0.003611 0.004582 0.002997 0.002801 0.002642 0.002517 0.002419 0.002363 
0.002331 0.002345 0.002366 0.002388 0.002417 0.00245 0.002497 0.002551 0.002617 0.002699 0.002801 0.002899 0.002786 0.003611 0.004582 0.002997 0.002801 0.002642 0.002517 0.002419 0.002363 
0.002331 0.002345 0.002366 0.002388 0.002417 0.00245 0.002497 0.002551 0.002617 0.002699 0.002801 0.002899 0.002786 0.003611 0.004582 0.002997 0.002801 0.002642 0.002517 0.002419 0.002363 
0.002331 0.002345 0.002366 0.002388 0.002417 0.00245 0.002497 0.002551 0.002617 0.002699 0.002801 0.002899 0.002786 0.003611 0.004582 0.002997 0.002801 0.002642 0.002517 0.002419 0.002363 
0.002331 0.002345 0.002366 0.002388 0.002417 0.00245 0.002497 0.002551 0.002617 0.002699 0.002801 0.002899 0.002786 0.003611 0.004582 0.002997 0.002801 0.002642 0.002517 0.002419 0.002363 
0.002331 0.002345 0.002366 0.002388 0.002417 0.00245 0.002497 0.002551 0.002617 0.002699 0.002801 0.002899 0.002786 0.003611 0.004582 0.002997 0.002801 0.002642 0.002517 0.002419 0.002363 
0.002331 0.002345 0.002366 0.002388 0.002417 0.00245 0.002497 0.002551 0.002617 0.002699 0.002801 0.002899 0.002786 0.003611 0.004582 0.002997 0.002801 0.002642 0.002517 0.002419 0.002363 
0.002331 0.002345 0.002366 0.002388 0.002417 0.00245 0.002497 0.002551 0.002617 0.002699 0.002801 0.002899 0.002786 0.003611 0.004582 0.002997 0.002801 0.002642 0.002517 0.002419 0.002363 
0.002331 0.002345 0.002366 0.002388 0.002417 0.00245 0.002497 0.002551 0.002617 0.002699 0.002801 0.002899 0.002786 0.003611 0.004582 0.002997 0.002801 0.002642 0.002517 0.002419 0.002363 
0.002331 0.002345 0.002366 0.002388 0.002417 0.00245 0.002497 0.002551 0.002617 0.002699 0.002801 0.002899 0.002786 0.003611 0.004582 0.002997 0.002801 0.002642 0.002517 0.002419 0.002363 
0.002331 0.002345 0.002366 0.002388 0.002417 0.00245 0.002497 0.002551 0.002617 0.002699 0.002801 0.002899 0.002786 0.003611 0.004582 0.002997 0.002801 0.002642 0.002517 0.002419 0.002363 
0.002331 0.002345 0.002366 0.002388 0.002417 0.00245 0.002497 0.002551 0.002617 0.002699 0.002801 0.002899 0.002786 0.003611 0.004582 0.002997 0.002801 0.002642 0.002517 0.002419 0.002363 
0.002331 0.002345 0.002366 0.002388 0.002417 0.00245 0.002497 0.002551 0.002617 0.002699 0.002801 0.002899 0.002786 0.003611 0.004582 0.002997 0.002801 0.002642 0.002517 0.002419 0.002363 
0.002331 0.002345 0.002366 0.002388 0.002417 0.00245 0.002497 0.002551 0.002617 0.002699 0.002801 0.002899 0.002786 0.003611 0.004582 0.002997 0.002801 0.002642 0.002517 0.002419 0.002363 
0.002331 0.002345 0.002366 0.002388 0.002417 0.00245 0.002497 0.002551 0.002617 0.002699 0.002801 0.002899 0.002786 0.003611 0.004582 0.002997 0.002801 0.002642 0.002517 0.002419 0.002363 
0.002331 0.002345 0.002366 0.002388 0.002417 0.00245 0.002497 0.002551 0.002617 0.002699 0.002801 0.002899 0.002786 0.003611 0.004582 0.002997 0.002801 0.002642 0.002517 0.002419 0.002363 
0.002331 0.002345 0.002366 0.002388 0.002417 0.00245 0.002497 0.002551 0.002617 0.002699 0.002801 0.002899 0.002786 0.003611 0.004582 0.002997 0.002801 0.002642 0.002517 0.002419 0.002363 
0.002331 0.002345 0.002366 0.002388 0.002417 0.00245 0.002497 0.002551 0.002617 0.002699 0.002801 0.002899 0.002786 0.003611 0.004582 0.002997 0.002801 0.002642 0.002517 0.002419 0.002363 
</DataArray>
</PointData>
</Piece>
</ImageData>
</VTKFile>
