<VTKFile type="ImageData">
<ImageData Origin="0 -10 0" Spacing="0.5 0.5 1" WholeExtent="0 20 0 40 0 0">
<Piece Extent="0 20 0 40 0 0">
<PointData>
<DataArray Name="f" NumberOfComponents="1" format="ascii" type="Float64">
0.1129 0.112 0.1114 0.1109 0.1105 0.1101 0.1098 0.1095 0.1093 0.1092 0.1091 0.1091 0.1091 0.1092 0.1094 0.1097 0.11 0.1105 0.111 0.1114 0.1129 
0.147 0.146 0.1455 0.1449 0.1445 0.1441 0.1437 0.1435 0.1433 0.1431 0.143 0.143 0.1431 0.1432 0.1434 0.1436 0.1441 0.1444 0.1452 0.1454 0.147 
0.1785 0.1777 0.1772 0.1767 0.1763 0.176 0.1757 0.1754 0.1753 0.1751 0.1751 0.175 0.1751 0.1751 0.1754 0.1755 0.176 0.1762 0.177 0.1771 0.1785 
0.2022 0.2016 0.2013 0.201 0.2008 0.2005 0.2003 0.2001 0.2001 0.1999 0.1999 0.1998 0.2 0.1999 0.2002 0.2001 0.2006 0.2006 0.2012 0.2012 0.2022 
0.2132 0.2131 0.2131 0.2131 0.213 0.213 0.213 0.2129 0.2129 0.2128 0.2129 0.2128 0.2129 0.2128 0.2129 0.2128 0.213 0.2129 0.2131 0.2131 0.2132 
0.2092 0.2097 0.21 0.2102 0.2105 0.2107 0.2108 0.211 0.2111 0.2111 0.2112 0.2112 0.2111 0.2111 0.2109 0.2109 0.2106 0.2105 0.21 0.21 0.2092 
0.1909 0.1917 0.1923 0.1929 0.1934 0.1939 0.1942 0.1946 0.1948 0.195 0.1951 0.1951 0.195 0.1949 0.1947 0.1944 0.1939 0.1936 0.1927 0.1924 0.1909 
0.1617 0.1627 0.1636 0.1644 0.1651 0.1657 0.1663 0.1668 0.1672 0.1674 0.1676 0.1677 0.1676 0.1675 0.1671 0.1668 0.1661 0.1656 0.1643 0.1638 0.1617 
0.1271 0.128 0.129 0.1298 0.1307 0.1314 0.1321 0.1327 0.1332 0.1335 0.1338 0.1339 0.1339 0.1337 0.1334 0.1329 0.1322 0.1315 0.1302 0.1294 0.1271 
0.0925 0.09319 0.09409 0.09494 0.09575 0.0965 0.09718 0.09778 0.0983 0.09871 0.09901 0.09918 0.09921 0.09909 0.09879 0.09835 0.09765 0.0969 0.09565 0.09478 0.0925 
0.06226 0.06267 0.06342 0.06414 0.06483 0.06548 0.06608 0.06663 0.06712 0.06753 0.06784 0.06805 0.06813 0.06807 0.06786 0.06748 0.0669 0.0662 0.06514 0.06426 0.06226 
0.03871 0.03887 0.03942 0.03996 0.04048 0.04097 0.04145 0.04189 0.04229 0.04264 0.04293 0.04314 0.04326 0.04327 0.04315 0.04288 0.04245 0.04189 0.04106 0.04028 0.03871 
0.02219 0.02218 0.02255 0.02291 0.02325 0.02359 0.02392 0.02423 0.02452 0.02479 0.02502 0.02521 0.02534 0.02539 0.02535 0.02519 0.02492 0.02451 0.02393 0.02333 0.02219 
0.01172 0.01162 0.01184 0.01206 0.01227 0.01247 0.01267 0.01287 0.01305 0.01323 0.01339 0.01353 0.01364 0.01371 0.01372 0.01365 0.0135 0.01325 0.01288 0.01246 0.01172 
0.005686 0.005578 0.005697 0.005813 0.005927 0.006039 0.006149 0.006257 0.006362 0.006464 0.006561 0.006651 0.006728 0.006786 0.006816 0.006805 0.00674 0.00661 0.0064 0.006135 0.005686 
0.002534 0.002446 0.002503 0.00256 0.002616 0.002671 0.002725 0.002778 0.002831 0.002883 0.002933 0.002982 0.003028 0.003067 0.003095 0.003106 0.003089 0.003034 0.002931 0.002783 0.002534 
0.001036 0.0009766 0.001002 0.001027 0.001051 0.001076 0.0011 0.001123 0.001147 0.00117 0.001193 0.001216 0.001238 0.001259 0.001278 0.001291 0.001293 0.001277 0.001235 0.001163 0.001036 
0.0003883 0.0003541 0.0003639 0.0003737 0.0003835 0.0003931 0.0004027 0.0004122 0.0004216 0.000431 0.0004403 0.0004497 0.000459 0.0004682 0.0004771 0.0004851 0.0004903 0.0004896 0.0004773 0.0004476 0.0003883 
0.0001335 0.0001163 0.0001196 0.0001231 0.0001265 0.00013 0.0001334 0.0001368 0.0001402 0.0001435 0.0001469 0.0001503 0.0001537 0.0001571 0.0001605 0.000164 0.0001671 0.0001692 0.0001679 0.0001588 0.0001335 
4.206e-05 3.468e-05 3.55e-05 3.652e-05 3.76e-05 3.869e-05 3.978e-05 4.087e-05 4.196e-05 4.305e-05 4.413e-05 4.522e-05 4.631e-05 4.742e-05 4.855e-05 4.971e-05 5.09e-05 5.206e-05 5.284e-05 5.162e-05 4.206e-05 
1.205e-05 9.545e-06 9.55e-06 9.76e-06 1.004e-05 1.033e-05 1.064e-05 1.095e-05 1.126e-05 1.157e-05 1.188e-05 1.22e-05 1.251e-05 1.283e-05 1.316e-05 1.349e-05 1.384e-05 1.42e-05 1.459e-05 1.501e-05 1.205e-05 
3.086e-06 2.496e-06 2.362e-06 2.36e-06 2.405e-06 2.47e-06 2.543e-06 2.619e-06 2.697e-06 2.775e-06 2.855e-06 2.935e-06 3.015e-06 3.097e-06 3.18e-06 3.265e-06 3.353e-06 3.446e-06 3.544e-06 3.65e-06 3.086e-06 
6.936e-07 5.722e-07 5.296e-07 5.166e-07 5.188e-07 5.286e-07 5.423e-07 5.58e-07 5.747e-07 5.92e-07 6.096e-07 6.275e-07 6.456e-07 6.639e-07 6.827e-07 7.019e-07 7.217e-07 7.425e-07 7.645e-07 7.881e-07 6.936e-07 
1.408e-07 1.199e-07 1.112e-07 1.073e-07 1.064e-07 1.072e-07 1.091e-07 1.116e-07 1.145e-07 1.175e-07 1.207e-07 1.24e-07 1.273e-07 1.308e-07 1.343e-07 1.379e-07 1.416e-07 1.456e-07 1.497e-07 1.542e-07 1.408e-07 
4.661e-08 4.751e-08 4.825e-08 4.884e-08 4.923e-08 4.945e-08 4.951e-08 4.945e-08 4.93e-08 4.909e-08 4.884e-08 4.856e-08 4.827e-08 4.798e-08 4.77e-08 4.744e-08 4.721e-08 4.7e-08 4.683e-08 4.67e-08 4.661e-08 
1.063e-07 1.225e-07 1.312e-07 1.374e-07 1.41e-07 1.425e-07 1.426e-07 1.416e-07 1.397e-07 1.371e-07 1.342e-07 1.31e-07 1.275e-07 1.24e-07 1.203e-07 1.167e-07 1.13e-07 1.093e-07 1.055e-07 1.017e-07 1.063e-07 
4.196e-07 4.788e-07 5.102e-07 5.346e-07 5.493e-07 5.571e-07 5.592e-07 5.569e-07 5.511e-07 5.428e-07 5.326e-07 5.209e-07 5.083e-07 4.95e-07 4.811e-07 4.67e-07 4.526e-07 4.38e-07 4.232e-07 4.081e-07 4.196e-07 
1.585e-06 1.782e-06 1.882e-06 1.967e-06 2.02e-06 2.052e-06 2.065e-06 2.062e-06 2.047e-06 2.023e-06 1.991e-06 1.954e-06 1.912e-06 1.867e-06 1.82e-06 1.772e-06 1.722e-06 1.67e-06 1.618e-06 1.565e-06 1.585e-06 
5.567e-06 6.174e-06 6.465e-06 6.74e-06 6.912e-06 7.025e-06 7.077e-06 7.084e-06 7.051e-06 6.986e-06 6.896e-06 6.786e-06 6.661e-06 6.523e-06 6.377e-06 6.223e-06 6.063e-06 5.899e-06 5.729e-06 5.555e-06 5.567e-06 
1.817e-05 1.991e-05 2.069e-05 2.151e-05 2.201e-05 2.237e-05 2.255e-05 2.261e-05 2.255e-05 2.239e-05 2.216e-05 2.186e-05 2.151e-05 2.112e-05 2.07e-05 2.026e-05 1.979e-05 1.93e-05 1.88e-05 1.827e-05 1.817e-05 
5.513e-05 5.983e-05 6.169e-05 6.4e-05 6.53e-05 6.636e-05 6.69e-05 6.714e-05 6.704e-05 6.67e-05 6.614e-05 6.54e-05 6.451e-05 6.35e-05 6.239e-05 6.119e-05 5.993e-05 5.86e-05 5.721e-05 5.577e-05 5.513e-05 
0.0001557 0.0001675 0.0001715 0.0001776 0.0001806 0.0001835 0.0001849 0.0001857 0.0001856 0.0001849 0.0001836 0.000182 0.0001798 0.0001774 0.0001747 0.0001718 0.0001686 0.0001653 0.0001618 0.0001581 0.0001557 
0.0004095 0.0004373 0.0004449 0.00046 0.0004659 0.0004735 0.0004763 0.0004789 0.0004786 0.0004777 0.0004748 0.0004715 0.0004667 0.0004615 0.0004552 0.0004487 0.0004414 0.0004337 0.0004255 0.0004169 0.0004095 
0.001004 0.001065 0.001077 0.001112 0.001121 0.001141 0.001144 0.001153 0.00115 0.001151 0.001144 0.001139 0.001128 0.001118 0.001105 0.001092 0.001076 0.00106 0.001042 0.001024 0.001004 
0.002294 0.002417 0.002432 0.00251 0.002518 0.002567 0.002564 0.002591 0.002579 0.002589 0.002571 0.002566 0.002544 0.002528 0.002501 0.002477 0.002446 0.002415 0.002379 0.002342 0.002294 
0.004889 0.005118 0.005123 0.005291 0.005277 0.005393 0.005366 0.005436 0.005404 0.005434 0.0054 0.005398 0.00536 0.005335 0.005289 0.005246 0.00519 0.005131 0.005064 0.004992 0.004889 
0.009704 0.01011 0.01009 0.01039 0.01035 0.01056 0.01052 0.01064 0.01061 0.01065 0.01062 0.01062 0.01057 0.01052 0.01045 0.01037 0.01027 0.01016 0.01004 0.009909 0.009704 
0.01797 0.0186 0.0186 0.01902 0.01905 0.0193 0.01937 0.01949 0.01954 0.01958 0.01957 0.01954 0.01947 0.01937 0.01924 0.01909 0.01892 0.01873 0.01853 0.01831 0.01797 
0.03105 0.03201 0.03208 0.03267 0.0329 0.03322 0.03344 0.03359 0.03367 0.03368 0.03363 0.03352 0.03336 0.03316 0.03294 0.03268 0.03241 0.03212 0.03182 0.03151 0.03105 
0.05032 0.05189 0.0522 0.05295 0.05345 0.05373 0.05392 0.05396 0.0539 0.05376 0.05355 0.05329 0.05301 0.0527 0.05238 0.05205 0.05173 0.0514 0.05108 0.05076 0.05032 
0.07737 0.07943 0.07992 0.08012 0.08028 0.08018 0.08001 0.07977 0.0795 0.07921 0.07893 0.07865 0.07839 0.07815 0.07794 0.07776 0.07762 0.07751 0.07742 0.07738 0.07737 
</DataArray>
<DataArray Name="E" NumberOfComponents="1" format="ascii" type="Float64">
1.695 1.682 1.658 1.634 1.612 1.591 1.571 1.552 1.533 1.515 1.497 1.479 1.462 1.444 1.426 1.408 1.389 1.369 1.348 1.325 1.313 
1.695 1.682 1.658 1.634 1.612 1.591 1.571 1.552 1.533 1.515 1.497 1.479 1.462 1.444 1.426 1.408 1.389 1.369 1.348 1.325 1.313 
1.695 1.682 1.658 1.634 1.612 1.591 1.571 1.552 1.533 1.515 1.497 1.479 1.462 1.444 1.426 1.408 1.389 1.369 1.348 1.325 1.313 
1.695 1.682 1.658 1.634 1.612 1.591 1.571 1.552 1.533 1.515 1.497 1.479 1.462 1.444 1.426 1.408 1.389 1.369 1.348 1.325 1.313 
1.695 1.682 1.658 1.634 1.612 1.591 1.571 1.552 1.533 1.515 1.497 1.479 1.462 1.444 1.426 1.408 1.389 1.369 1.348 1.325 1.313 
1.695 1.682 1.658 1.634 1.612 1.591 1.571 1.552 1.533 1.515 1.497 1.479 1.462 1.444 1.426 1.408 1.389 1.369 1.348 1.325 1.313 
1.695 1.682 1.658 1.634 1.612 1.591 1.571 1.552 1.533 1.515 1.497 1.479 1.462 1.444 1.426 1.408 1.389 1.369 1.348 1.325 1.313 
1.695 1.682 1.658 1.634 1.612 1.591 1.571 1.552 1.533 1.515 1.497 1.479 1.462 1.444 1.426 1.408 1.389 1.369 1.348 1.325 1.313 
1.695 1.682 1.658 1.634 1.612 1.591 1.571 1.552 1.533 1.515 1.497 1.479 1.462 1.444 1.426 1.408 1.389 1.369 1.348 1.325 1.313 
1.695 1.682 1.658 1.634 1.612 1.591 1.571 1.552 1.533 1.515 1.497 1.479 1.462 1.444 1.426 1.408 1.389 1.369 1.348 1.325 1.313 
1.695 1.682 1.658 1.634 1.612 1.591 1.571 1.552 1.533 1.515 1.497 1.479 1.462 1.444 1.426 1.408 1.389 1.369 1.348 1.325 1.313 
1.695 1.682 1.658 1.634 1.612 1.591 1.571 1.552 1.533 1.515 1.497 1.479 1.462 1.444 1.426 1.408 1.389 1.369 1.348 1.325 1.313 
1.695 1.682 1.658 1.634 1.612 1.591 1.571 1.552 1.533 1.515 1.497 1.479 1.462 1.444 1.426 1.408 1.389 1.369 1.348 1.325 1.313 
1.695 1.682 1.658 1.634 1.612 1.591 1.571 1.552 1.533 1.515 1.497 1.479 1.462 1.444 1.426 1.408 1.389 1.369 1.348 1.325 1.313 
1.695 1.682 1.658 1.634 1.612 1.591 1.571 1.552 1.533 1.515 1.497 1.479 1.462 1.444 1.426 1.408 1.389 1.369 1.348 1.325 1.313 
1.695 1.682 1.658 1.634 1.612 1.591 1.571 1.552 1.533 1.515 1.497 1.479 1.462 1.444 1.426 1.408 1.389 1.369 1.348 1.325 1.313 
1.695 1.682 1.658 1.634 1.612 1.591 1.571 1.552 1.533 1.515 1.497 1.479 1.462 1.444 1.426 1.408 1.389 1.369 1.348 1.325 1.313 
1.695 1.682 1.658 1.634 1.612 1.591 1.571 1.552 1.533 1.515 1.497 1.479 1.462 1.444 1.426 1.408 1.389 1.369 1.348 1.325 1.313 
1.695 1.682 1.658 1.634 1.612 1.591 1.571 1.552 1.533 1.515 1.497 1.479 1.462 1.444 1.426 1.408 1.389 1.369 1.348 1.325 1.313 
1.695 1.682 1.658 1.634 1.612 1.591 1.571 1.552 1.533 1.515 1.497 1.479 1.462 1.444 1.426 1.408 1.389 1.369 1.348 1.325 1.313 
1.695 1.682 1.658 1.634 1.612 1.591 1.571 1.552 1.533 1.515 1.497 1.479 1.462 1.444 1.426 1.408 1.389 1.369 1.348 1.325 1.313 
1.695 1.682 1.658 1.634 1.612 1.591 1.571 1.552 1.533 1.515 1.497 1.479 1.462 1.444 1.426 1.408 1.389 1.369 1.348 1.325 1.313 
1.695 1.682 1.658 1.634 1.612 1.591 1.571 1.552 1.533 1.515 1.497 1.479 1.462 1.444 1.426 1.408 1.389 1.369 1.348 1.325 1.313 
1.695 1.682 1.658 1.634 1.612 1.591 1.571 1.552 1.533 1.515 1.497 1.479 1.462 1.444 1.426 1.408 1.389 1.369 1.348 1.325 1.313 
1.695 1.682 1.658 1.634 1.612 1.591 1.571 1.552 1.533 1.515 1.497 1.479 1.462 1.444 1.426 1.408 1.389 1.369 1.348 1.325 1.313 
1.695 1.682 1.658 1.634 1.612 1.591 1.571 1.552 1.533 1.515 1.497 1.479 1.462 1.444 1.426 1.408 1.389 1.369 1.348 1.325 1.313 
1.695 1.682 1.658 1.634 1.612 1.591 1.571 1.552 1.533 1.515 1.497 1.479 1.462 1.444 1.426 1.408 1.389 1.369 1.348 1.325 1.313 
1.695 1.682 1.658 1.634 1.612 1.591 1.571 1.552 1.533 1.515 1.497 1.479 1.462 1.444 1.426 1.408 1.389 1.369 1.348 1.325 1.313 
1.695 1.682 1.658 1.634 1.612 1.591 1.571 1.552 1.533 1.515 1.497 1.479 1.462 1.444 1.426 1.408 1.389 1.369 1.348 1.325 1.313 
1.695 1.682 1.658 1.634 1.612 1.591 1.571 1.552 1.533 1.515 1.497 1.479 1.462 1.444 1.426 1.408 1.389 1.369 1.348 1.325 1.313 
1.695 1.682 1.658 1.634 1.612 1.591 1.571 1.552 1.533 1.515 1.497 1.479 1.462 1.444 1.426 1.408 1.389 1.369 1.348 1.325 1.313 
1.695 1.682 1.658 1.634 1.612 1.591 1.571 1.552 1.533 1.515 1.497 1.479 1.462 1.444 1.426 1.408 1.389 1.369 1.348 1.325 1.313 
1.695 1.682 1.658 1.634 1.612 1.591 1.571 1.552 1.533 1.515 1.497 1.479 1.462 1.444 1.426 1.408 1.389 1.369 1.348 1.325 1.313 
1.695 1.682 1.658 1.634 1.612 1.591 1.571 1.552 1.533 1.515 1.497 1.479 1.462 1.444 1.426 1.408 1.389 1.369 1.348 1.325 1.313 
1.695 1.682 1.658 1.634 1.612 1.591 1.571 1.552 1.533 1.515 1.497 1.479 1.462 1.444 1.426 1.408 1.389 1.369 1.348 1.325 1.313 
1.695 1.682 1.658 1.634 1.612 1.591 1.571 1.552 1.533 1.515 1.497 1.479 1.462 1.444 1.426 1.408 1.389 1.369 1.348 1.325 1.313 
1.695 1.682 1.658 1.634 1.612 1.591 1.571 1.552 1.533 1.515 1.497 1.479 1.462 1.444 1.426 1.408 1.389 1.369 1.348 1.325 1.313 
1.695 1.682 1.658 1.634 1.612 1.591 1.571 1.552 1.533 1.515 1.497 1.479 1.462 1.444 1.426 1.408 1.389 1.369 1.348 1.325 1.313 
1.695 1.682 1.658 1.634 1.612 1.591 1.571 1.552 1.533 1.515 1.497 1.479 1.462 1.444 1.426 1.408 1.389 1.369 1.348 1.325 1.313 
1.695 1.682 1.658 1.634 1.612 1.591 1.571 1.552 1.533 1.515 1.497 1.479 1.462 1.444 1.426 1.408 1.389 1.369 1.348 1.325 1.313 
1.695 1.682 1.658 1.634 1.612 1.591 1.571 1.552 1.533 1.515 1.497 1.479 1.462 1.444 1.426 1.408 1.389 1.369 1.348 1.325 1.313 
</DataArray>
<DataArray Name="ne" NumberOfComponents="1" format="ascii" type="Float64">
0.9485 0.9494 0.9526 0.9546 0.9569 0.9588 0.9605 0.9619 0.9631 0.9641 0.9646 0.9651 0.965 0.9648 0.9639 0.9628 0.961 0.9588 0.9561 0.9522 0.9491 
0.9485 0.9494 0.9526 0.9546 0.9569 0.9588 0.9605 0.9619 0.9631 0.9641 0.9646 0.9651 0.965 0.9648 0.9639 0.9628 0.961 0.9588 0.9561 0.9522 0.9491 
0.9485 0.9494 0.9526 0.9546 0.9569 0.9588 0.9605 0.9619 0.9631 0.9641 0.9646 0.9651 0.965 0.9648 0.9639 0.9628 0.961 0.9588 0.9561 0.9522 0.9491 
0.9485 0.9494 0.9526 0.9546 0.9569 0.9588 0.9605 0.9619 0.9631 0.9641 0.9646 0.9651 0.965 0.9648 0.9639 0.9628 0.961 0.9588 0.9561 0.9522 0.9491 
0.9485 0.9494 0.9526 0.9546 0.9569 0.9588 0.9605 0.9619 0.9631 0.9641 0.9646 0.9651 0.965 0.9648 0.9639 0.9628 0.961 0.9588 0.9561 0.9522 0.9491 
0.9485 0.9494 0.9526 0.9546 0.9569 0.9588 0.9605 0.9619 0.9631 0.9641 0.9646 0.9651 0.965 0.9648 0.9639 0.9628 0.961 0.9588 0.9561 0.9522 0.9491 
0.9485 0.9494 0.9526 0.9546 0.9569 0.9588 0.9605 0.9619 0.9631 0.9641 0.9646 0.9651 0.965 0.9648 0.9639 0.9628 0.961 0.9588 0.9561 0.9522 0.9491 
0.9485 0.9494 0.9526 0.9546 0.9569 0.9588 0.9605 0.9619 0.9631 0.9641 0.9646 0.9651 0.965 0.9648 0.9639 0.9628 0.961 0.9588 0.9561 0.9522 0.9491 
0.9485 0.9494 0.9526 0.9546 0.9569 0.9588 0.9605 0.9619 0.9631 0.9641 0.9646 0.9651 0.965 0.9648 0.9639 0.9628 0.961 0.9588 0.9561 0.9522 0.9491 
0.9485 0.9494 0.9526 0.9546 0.9569 0.9588 0.9605 0.9619 0.9631 0.9641 0.9646 0.9651 0.965 0.9648 0.9639 0.9628 0.961 0.9588 0.9561 0.9522 0.9491 
0.9485 0.9494 0.9526 0.9546 0.9569 0.9588 0.9605 0.9619 0.9631 0.9641 0.9646 0.9651 0.965 0.9648 0.9639 0.9628 0.961 0.9588 0.9561 0.9522 0.9491 
0.9485 0.9494 0.9526 0.9546 0.9569 0.9588 0.9605 0.9619 0.9631 0.9641 0.9646 0.9651 0.965 0.9648 0.9639 0.9628 0.961 0.9588 0.9561 0.9522 0.9491 
0.9485 0.9494 0.9526 0.9546 0.9569 0.9588 0.9605 0.9619 0.9631 0.9641 0.9646 0.9651 0.965 0.9648 0.9639 0.9628 0.961 0.9588 0.9561 0.9522 0.9491 
0.9485 0.9494 0.9526 0.9546 0.9569 0.9588 0.9605 0.9619 0.9631 0.9641 0.9646 0.9651 0.965 0.9648 0.9639 0.9628 0.961 0.9588 0.9561 0.9522 0.9491 
0.9485 0.9494 0.9526 0.9546 0.9569 0.9588 0.9605 0.9619 0.9631 0.9641 0.9646 0.9651 0.965 0.9648 0.9639 0.9628 0.961 0.9588 0.9561 0.9522 0.9491 
0.9485 0.9494 0.9526 0.9546 0.9569 0.9588 0.9605 0.9619 0.9631 0.9641 0.9646 0.9651 0.965 0.9648 0.9639 0.9628 0.961 0.9588 0.9561 0.9522 0.9491 
0.9485 0.9494 0.9526 0.9546 0.9569 0.9588 0.9605 0.9619 0.9631 0.9641 0.9646 0.9651 0.965 0.9648 0.9639 0.9628 0.961 0.9588 0.9561 0.9522 0.9491 
0.9485 0.9494 0.9526 0.9546 0.9569 0.9588 0.9605 0.9619 0.9631 0.9641 0.9646 0.9651 0.965 0.9648 0.9639 0.9628 0.961 0.9588 0.9561 0.9522 0.9491 
0.9485 0.9494 0.9526 0.9546 0.9569 0.9588 0.9605 0.9619 0.9631 0.9641 0.9646 0.9651 0.965 0.9648 0.9639 0.9628 0.961 0.9588 0.9561 0.9522 0.9491 
0.9485 0.9494 0.9526 0.9546 0.9569 0.9588 0.9605 0.9619 0.9631 0.9641 0.9646 0.9651 0.965 0.9648 0.9639 0.9628 0.961 0.9588 0.9561 0.9522 0.9491 
0.9485 0.9494 0.9526 0.9546 0.9569 0.9588 0.9605 0.9619 0.9631 0.9641 0.9646 0.9651 0.965 0.9648 0.9639 0.9628 0.961 0.9588 0.9561 0.9522 0.9491 
0.9485 0.9494 0.9526 0.9546 0.9569 0.9588 0.9605 0.9619 0.9631 0.9641 0.9646 0.9651 0.965 0.9648 0.9639 0.9628 0.961 0.9588 0.9561 0.9522 0.9491 
0.9485 0.9494 0.9526 0.9546 0.9569 0.9588 0.9605 0.9619 0.9631 0.9641 0.9646 0.9651 0.965 0.9648 0.9639 0.9628 0.961 0.9588 0.9561 0.9522 0.9491 
0.9485 0.9494 0.9526 0.9546 0.9569 0.9588 0.9605 0.9619 0.9631 0.9641 0.9646 0.9651 0.965 0.9648 0.9639 0.9628 0.961 0.9588 0.9561 0.9522 0.9491 
0.9485 0.9494 0.9526 0.9546 0.9569 0.9588 0.9605 0.9619 0.9631 0.9641 0.9646 0.9651 0.965 0.9648 0.9639 0.9628 0.961 0.9588 0.9561 0.9522 0.9491 
0.9485 0.9494 0.9526 0.9546 0.9569 0.9588 0.9605 0.9619 0.9631 0.9641 0.9646 0.9651 0.965 0.9648 0.9639 0.9628 0.961 0.9588 0.9561 0.9522 0.9491 
0.9485 0.9494 0.9526 0.9546 0.9569 0.9588 0.9605 0.9619 0.9631 0.9641 0.9646 0.9651 0.965 0.9648 0.9639 0.9628 0.961 0.9588 0.9561 0.9522 0.9491 
0.9485 0.9494 0.9526 0.9546 0.9569 0.9588 0.9605 0.9619 0.9631 0.9641 0.9646 0.9651 0.965 0.9648 0.9639 0.9628 0.961 0.9588 0.9561 0.9522 0.9491 
0.9485 0.9494 0.9526 0.9546 0.9569 0.9588 0.9605 0.9619 0.9631 0.9641 0.9646 0.9651 0.965 0.9648 0.9639 0.9628 0.961 0.9588 0.9561 0.9522 0.9491 
0.9485 0.9494 0.9526 0.9546 0.9569 0.9588 0.9605 0.9619 0.9631 0.9641 0.9646 0.9651 0.965 0.9648 0.9639 0.9628 0.961 0.9588 0.9561 0.9522 0.9491 
0.9485 0.9494 0.9526 0.9546 0.9569 0.9588 0.9605 0.9619 0.9631 0.9641 0.9646 0.9651 0.965 0.9648 0.9639 0.9628 0.961 0.9588 0.9561 0.9522 0.9491 
0.9485 0.9494 0.9526 0.9546 0.9569 0.9588 0.9605 0.9619 0.9631 0.9641 0.9646 0.9651 0.965 0.9648 0.9639 0.9628 0.961 0.9588 0.9561 0.9522 0.9491 
0.9485 0.9494 0.9526 0.9546 0.9569 0.9588 0.9605 0.9619 0.9631 0.9641 0.9646 0.9651 0.965 0.9648 0.9639 0.9628 0.961 0.9588 0.9561 0.9522 0.9491 
0.9485 0.9494 0.9526 0.9546 0.9569 0.9588 0.9605 0.9619 0.9631 0.9641 0.9646 0.9651 0.965 0.9648 0.9639 0.9628 0.961 0.9588 0.9561 0.9522 0.9491 
0.9485 0.9494 0.9526 0.9546 0.9569 0.9588 0.9605 0.9619 0.9631 0.9641 0.9646 0.9651 0.965 0.9648 0.9639 0.9628 0.961 0.9588 0.9561 0.9522 0.9491 
0.9485 0.9494 0.9526 0.9546 0.9569 0.9588 0.9605 0.9619 0.9631 0.9641 0.9646 0.9651 0.965 0.9648 0.9639 0.9628 0.961 0.9588 0.9561 0.9522 0.9491 
0.9485 0.9494 0.9526 0.9546 0.9569 0.9588 0.9605 0.9619 0.9631 0.9641 0.9646 0.9651 0.965 0.9648 0.9639 0.9628 0.961 0.9588 0.9561 0.9522 0.9491 
0.9485 0.9494 0.9526 0.9546 0.9569 0.9588 0.9605 0.9619 0.9631 0.9641 0.9646 0.9651 0.965 0.9648 0.9639 0.9628 0.961 0.9588 0.9561 0.9522 0.9491 
0.9485 0.9494 0.9526 0.9546 0.9569 0.9588 0.9605 0.9619 0.9631 0.9641 0.9646 0.9651 0.965 0.9648 0.9639 0.9628 0.961 0.9588 0.9561 0.9522 0.9491 
0.9485 0.9494 0.9526 0.9546 0.9569 0.9588 0.9605 0.9619 0.9631 0.9641 0.9646 0.9651 0.965 0.9648 0.9639 0.9628 0.961 0.9588 0.9561 0.9522 0.9491 
0.9485 0.9494 0.9526 0.9546 0.9569 0.9588 0.9605 0.9619 0.9631 0.9641 0.9646 0.9651 0.965 0.9648 0.9639 0.9628 0.961 0.9588 0.9561 0.9522 0.9491 
</DataArray>
</PointData>
</Piece>
</ImageData>
</VTKFile>
