<VTKFile type="ImageData">
<ImageData Origin="0 -10 0" Spacing="0.5 0.5 1" WholeExtent="0 20 0 40 0 0">
<Piece Extent="0 20 0 40 0 0">
<PointData>
<DataArray Name="f" NumberOfComponents="1" format="ascii" type="Float64">
1.09e-07 1.09e-07 1.09e-07 1.09e-07 1.09e-07 1.09e-07 1.09e-07 1.09e-07 1.09e-07 1.09e-07 1.09e-07 1.09e-07 1.09e-07 1.09e-07 1.09e-07 1.09e-07 1.09e-07 1.09e-07 1.09e-07 1.09e-07 1.09e-07 
8.01e-07 8.01e-07 8.01e-07 8.01e-07 8.01e-07 8.01e-07 8.01e-07 8.01e-07 8.01e-07 8.01e-07 8.01e-07 8.01e-07 8.01e-07 8.01e-07 8.01e-07 8.01e-07 8.01e-07 8.01e-07 8.01e-07 8.01e-07 8.01e-07 
5.013e-06 5.013e-06 5.013e-06 5.013e-06 5.013e-06 5.013e-06 5.013e-06 5.013e-06 5.013e-06 5.013e-06 5.013e-06 5.013e-06 5.013e-06 5.013e-06 5.013e-06 5.013e-06 5.013e-06 5.013e-06 5.013e-06 5.013e-06 5.013e-06 
2.687e-05 2.687e-05 2.687e-05 2.687e-05 2.687e-05 2.687e-05 2.687e-05 2.687e-05 2.687e-05 2.687e-05 2.687e-05 2.687e-05 2.687e-05 2.687e-05 2.687e-05 2.687e-05 2.687e-05 2.687e-05 2.687e-05 2.687e-05 2.687e-05 
0.000124 0.000124 0.000124 0.000124 0.000124 0.000124 0.000124 0.000124 0.000124 0.000124 0.000124 0.000124 0.000124 0.000124 0.000124 0.000124 0.000124 0.000124 0.000124 0.000124 0.000124 
0.0004948 0.0004948 0.0004948 0.0004948 0.0004948 0.0004948 0.0004948 0.0004948 0.0004948 0.0004948 0.0004948 0.0004948 0.0004948 0.0004948 0.0004948 0.0004948 0.0004948 0.0004948 0.0004948 0.0004948 0.0004948 
0.001714 0.001714 0.001714 0.001714 0.001714 0.001714 0.001714 0.001714 0.001714 0.001714 0.001714 0.001714 0.001714 0.001714 0.001714 0.001714 0.001714 0.001714 0.001714 0.001714 0.001714 
0.00517 0.00517 0.00517 0.00517 0.00517 0.00517 0.00517 0.00517 0.00517 0.00517 0.00517 0.00517 0.00517 0.00517 0.00517 0.00517 0.00517 0.00517 0.00517 0.00517 0.00517 
0.01362 0.01362 0.01362 0.01362 0.01362 0.01362 0.01362 0.01362 0.01362 0.01362 0.01362 0.01362 0.01362 0.01362 0.01362 0.01362 0.01362 0.01362 0.01362 0.01362 0.01362 
0.03137 0.03137 0.03137 0.03137 0.03137 0.03137 0.03137 0.03137 0.03137 0.03137 0.03137 0.03137 0.03137 0.03137 0.03137 0.03137 0.03137 0.03137 0.03137 0.03137 0.03137 
0.06331 0.06331 0.06331 0.06331 0.06331 0.06331 0.06331 0.06331 0.06331 0.06331 0.06331 0.06331 0.06331 0.06331 0.06331 0.06331 0.06331 0.06331 0.06331 0.06331 0.06331 
0.112 0.112 0.112 0.112 0.112 0.112 0.112 0.112 0.112 0.112 0.112 0.112 0.112 0.112 0.112 0.112 0.112 0.112 0.112 0.112 0.112 
0.1739 0.1739 0.1739 0.1739 0.1739 0.1739 0.1739 0.1739 0.1739 0.1739 0.1739 0.1739 0.1739 0.1739 0.1739 0.1739 0.1739 0.1739 0.1739 0.1739 0.1739 
0.2366 0.2366 0.2366 0.2366 0.2366 0.2366 0.2366 0.2366 0.2366 0.2366 0.2366 0.2366 0.2366 0.2366 0.2366 0.2366 0.2366 0.2366 0.2366 0.2366 0.2366 
0.282 0.282 0.282 0.282 0.282 0.282 0.282 0.282 0.282 0.282 0.282 0.282 0.282 0.282 0.282 0.282 0.282 0.282 0.282 0.282 0.282 
0.294 0.294 0.294 0.294 0.294 0.294 0.294 0.294 0.294 0.294 0.294 0.294 0.294 0.294 0.294 0.294 0.294 0.294 0.294 0.294 0.294 
0.2675 0.2675 0.2675 0.2675 0.2675 0.2675 0.2675 0.2675 0.2675 0.2675 0.2675 0.2675 0.2675 0.2675 0.2675 0.2675 0.2675 0.2675 0.2675 0.2675 0.2675 
0.2119 0.2119 0.2119 0.2119 0.2119 0.2119 0.2119 0.2119 0.2119 0.2119 0.2119 0.2119 0.2119 0.2119 0.2119 0.2119 0.2119 0.2119 0.2119 0.2119 0.2119 
0.1457 0.1457 0.1457 0.1457 0.1457 0.1457 0.1457 0.1457 0.1457 0.1457 0.1457 0.1457 0.1457 0.1457 0.1457 0.1457 0.1457 0.1457 0.1457 0.1457 0.1457 
0.08659 0.08659 0.08659 0.08659 0.08659 0.08659 0.08659 0.08659 0.08659 0.08659 0.08659 0.08659 0.08659 0.08659 0.08659 0.08659 0.08659 0.08659 0.08659 0.08659 0.08659 
0.04429 0.04429 0.04429 0.04429 0.04429 0.04429 0.04429 0.04429 0.04429 0.04429 0.04429 0.04429 0.04429 0.04429 0.04429 0.04429 0.04429 0.04429 0.04429 0.04429 0.04429 
0.01939 0.01939 0.01939 0.01939 0.01939 0.01939 0.01939 0.01939 0.01939 0.01939 0.01939 0.01939 0.01939 0.01939 0.01939 0.01939 0.01939 0.01939 0.01939 0.01939 0.01939 
0.007228 0.007228 0.007228 0.007228 0.007228 0.007228 0.007228 0.007228 0.007228 0.007228 0.007228 0.007228 0.007228 0.007228 0.007228 0.007228 0.007228 0.007228 0.007228 0.007228 0.007228 
0.002279 0.002279 0.002279 0.002279 0.002279 0.002279 0.002279 0.002279 0.002279 0.002279 0.002279 0.002279 0.002279 0.002279 0.002279 0.002279 0.002279 0.002279 0.002279 0.002279 0.002279 
0.0006038 0.0006038 0.0006038 0.0006038 0.0006038 0.0006038 0.0006038 0.0006038 0.0006038 0.0006038 0.0006038 0.0006038 0.0006038 0.0006038 0.0006038 0.0006038 0.0006038 0.0006038 0.0006038 0.0006038 0.0006038 
0.0001335 0.0001335 0.0001335 0.0001335 0.0001335 0.0001335 0.0001335 0.0001335 0.0001335 0.0001335 0.0001335 0.0001335 0.0001335 0.0001335 0.0001335 0.0001335 0.0001335 0.0001335 0.0001335 0.0001335 0.0001335 
2.444e-05 2.444e-05 2.444e-05 2.444e-05 2.444e-05 2.444e-05 2.444e-05 2.444e-05 2.444e-05 2.444e-05 2.444e-05 2.444e-05 2.444e-05 2.444e-05 2.444e-05 2.444e-05 2.444e-05 2.444e-05 2.444e-05 2.444e-05 2.444e-05 
3.681e-06 3.681e-06 3.681e-06 3.681e-06 3.681e-06 3.681e-06 3.681e-06 3.681e-06 3.681e-06 3.681e-06 3.681e-06 3.681e-06 3.681e-06 3.681e-06 3.681e-06 3.681e-06 3.681e-06 3.681e-06 3.681e-06 3.681e-06 3.681e-06 
4.526e-07 4.526e-07 4.526e-07 4.526e-07 4.526e-07 4.526e-07 4.526e-07 4.526e-07 4.526e-07 4.526e-07 4.526e-07 4.526e-07 4.526e-07 4.526e-07 4.526e-07 4.526e-07 4.526e-07 4.526e-07 4.526e-07 4.526e-07 4.526e-07 
4.512e-08 4.512e-08 4.512e-08 4.512e-08 4.512e-08 4.512e-08 4.512e-08 4.512e-08 4.512e-08 4.512e-08 4.512e-08 4.512e-08 4.512e-08 4.512e-08 4.512e-08 4.512e-08 4.512e-08 4.512e-08 4.512e-08 4.512e-08 4.512e-08 
3.626e-09 3.626e-09 3.626e-09 3.626e-09 3.626e-09 3.626e-09 3.626e-09 3.626e-09 3.626e-09 3.626e-09 3.626e-09 3.626e-09 3.626e-09 3.626e-09 3.626e-09 3.626e-09 3.626e-09 3.626e-09 3.626e-09 3.626e-09 3.626e-09 
2.335e-10 2.335e-10 2.335e-10 2.335e-10 2.335e-10 2.335e-10 2.335e-10 2.335e-10 2.335e-10 2.335e-10 2.335e-10 2.335e-10 2.335e-10 2.335e-10 2.335e-10 2.335e-10 2.335e-10 2.335e-10 2.335e-10 2.335e-10 2.335e-10 
1.199e-11 1.199e-11 1.199e-11 1.199e-11 1.199e-11 1.199e-11 1.199e-11 1.199e-11 1.199e-11 1.199e-11 1.199e-11 1.199e-11 1.199e-11 1.199e-11 1.199e-11 1.199e-11 1.199e-11 1.199e-11 1.199e-11 1.199e-11 1.199e-11 
4.886e-13 4.886e-13 4.886e-13 4.886e-13 4.886e-13 4.886e-13 4.886e-13 4.886e-13 4.886e-13 4.886e-13 4.886e-13 4.886e-13 4.886e-13 4.886e-13 4.886e-13 4.886e-13 4.886e-13 4.886e-13 4.886e-13 4.886e-13 4.886e-13 
1.635e-14 1.635e-14 1.635e-14 1.635e-14 1.635e-14 1.635e-14 1.635e-14 1.635e-14 1.635e-14 1.635e-14 1.635e-14 1.635e-14 1.635e-14 1.635e-14 1.635e-14 1.635e-14 1.635e-14 1.635e-14 1.635e-14 1.635e-14 1.635e-14 
1.678e-14 1.678e-14 1.678e-14 1.678e-14 1.678e-14 1.678e-14 1.678e-14 1.678e-14 1.678e-14 1.678e-14 1.678e-14 1.678e-14 1.678e-14 1.678e-14 1.678e-14 1.678e-14 1.678e-14 1.678e-14 1.678e-14 1.678e-14 1.678e-14 
3.636e-13 3.636e-13 3.636e-13 3.636e-13 3.636e-13 3.636e-13 3.636e-13 3.636e-13 3.636e-13 3.636e-13 3.636e-13 3.636e-13 3.636e-13 3.636e-13 3.636e-13 3.636e-13 3.636e-13 3.636e-13 3.636e-13 3.636e-13 3.636e-13 
6.593e-12 6.593e-12 6.593e-12 6.593e-12 6.593e-12 6.593e-12 6.593e-12 6.593e-12 6.593e-12 6.593e-12 6.593e-12 6.593e-12 6.593e-12 6.593e-12 6.593e-12 6.593e-12 6.593e-12 6.593e-12 6.593e-12 6.593e-12 6.593e-12 
9.837e-11 9.837e-11 9.837e-11 9.837e-11 9.837e-11 9.837e-11 9.837e-11 9.837e-11 9.837e-11 9.837e-11 9.837e-11 9.837e-11 9.837e-11 9.837e-11 9.837e-11 9.837e-11 9.837e-11 9.837e-11 9.837e-11 9.837e-11 9.837e-11 
1.216e-09 1.216e-09 1.216e-09 1.216e-09 1.216e-09 1.216e-09 1.216e-09 1.216e-09 1.216e-09 1.216e-09 1.216e-09 1.216e-09 1.216e-09 1.216e-09 1.216e-09 1.216e-09 1.216e-09 1.216e-09 1.216e-09 1.216e-09 1.216e-09 
1.256e-08 1.256e-08 1.256e-08 1.256e-08 1.256e-08 1.256e-08 1.256e-08 1.256e-08 1.256e-08 1.256e-08 1.256e-08 1.256e-08 1.256e-08 1.256e-08 1.256e-08 1.256e-08 1.256e-08 1.256e-08 1.256e-08 1.256e-08 1.256e-08 
</DataArray>
<DataArray Name="E" NumberOfComponents="1" format="ascii" type="Float64">
1.5 1.5 1.5 1.5 1.5 1.5 1.5 1.5 1.5 1.5 1.5 1.5 1.5 1.5 1.5 1.5 1.5 1.5 1.5 1.5 1.5 
1.5 1.5 1.5 1.5 1.5 1.5 1.5 1.5 1.5 1.5 1.5 1.5 1.5 1.5 1.5 1.5 1.5 1.5 1.5 1.5 1.5 
1.5 1.5 1.5 1.5 1.5 1.5 1.5 1.5 1.5 1.5 1.5 1.5 1.5 1.5 1.5 1.5 1.5 1.5 1.5 1.5 1.5 
1.5 1.5 1.5 1.5 1.5 1.5 1.5 1.5 1.5 1.5 1.5 1.5 1.5 1.5 1.5 1.5 1.5 1.5 1.5 1.5 1.5 
1.5 1.5 1.5 1.5 1.5 1.5 1.5 1.5 1.5 1.5 1.5 1.5 1.5 1.5 1.5 1.5 1.5 1.5 1.5 1.5 1.5 
1.5 1.5 1.5 1.5 1.5 1.5 1.5 1.5 1.5 1.5 1.5 1.5 1.5 1.5 1.5 1.5 1.5 1.5 1.5 1.5 1.5 
1.5 1.5 1.5 1.5 1.5 1.5 1.5 1.5 1.5 1.5 1.5 1.5 1.5 1.5 1.5 1.5 1.5 1.5 1.5 1.5 1.5 
1.5 1.5 1.5 1.5 1.5 1.5 1.5 1.5 1.5 1.5 1.5 1.5 1.5 1.5 1.5 1.5 1.5 1.5 1.5 1.5 1.5 
1.5 1.5 1.5 1.5 1.5 1.5 1.5 1.5 1.5 1.5 1.5 1.5 1.5 1.5 1.5 1.5 1.5 1.5 1.5 1.5 1.5 
1.5 1.5 1.5 1.5 1.5 1.5 1.5 1.5 1.5 1.5 1.5 1.5 1.5 1.5 1.5 1.5 1.5 1.5 1.5 1.5 1.5 
1.5 1.5 1.5 1.5 1.5 1.5 1.5 1.5 1.5 1.5 1.5 1.5 1.5 1.5 1.5 1.5 1.5 1.5 1.5 1.5 1.5 
1.5 1.5 1.5 1.5 1.5 1.5 1.5 1.5 1.5 1.5 1.5 1.5 1.5 1.5 1.5 1.5 1.5 1.5 1.5 1.5 1.5 
1.5 1.5 1.5 1.5 1.5 1.5 1.5 1.5 1.5 1.5 1.5 1.5 1.5 1.5 1.5 1.5 1.5 1.5 1.5 1.5 1.5 
1.5 1.5 1.5 1.5 1.5 1.5 1.5 1.5 1.5 1.5 1.5 1.5 1.5 1.5 1.5 1.5 1.5 1.5 1.5 1.5 1.5 
1.5 1.5 1.5 1.5 1.5 1.5 1.5 1.5 1.5 1.5 1.5 1.5 1.5 1.5 1.5 1.5 1.5 1.5 1.5 1.5 1.5 
1.5 1.5 1.5 1.5 1.5 1.5 1.5 1.5 1.5 1.5 1.5 1.5 1.5 1.5 1.5 1.5 1.5 1.5 1.5 1.5 1.5 
1.5 1.5 1.5 1.5 1.5 1.5 1.5 1.5 1.5 1.5 1.5 1.5 1.5 1.5 1.5 1.5 1.5 1.5 1.5 1.5 1.5 
1.5 1.5 1.5 1.5 1.5 1.5 1.5 1.5 1.5 1.5 1.5 1.5 1.5 1.5 1.5 1.5 1.5 1.5 1.5 1.5 1.5 
1.5 1.5 1.5 1.5 1.5 1.5 1.5 1.5 1.5 1.5 1.5 1.5 1.5 1.5 1.5 1.5 1.5 1.5 1.5 1.5 1.5 
1.5 1.5 1.5 1.5 1.5 1.5 1.5 1.5 1.5 1.5 1.5 1.5 1.5 1.5 1.5 1.5 1.5 1.5 1.5 1.5 1.5 
1.5 1.5 1.5 1.5 1.5 1.5 1.5 1.5 1.5 1.5 1.5 1.5 1.5 1.5 1.5 1.5 1.5 1.5 1.5 1.5 1.5 
1.5 1.5 1.5 1.5 1.5 1.5 1.5 1.5 1.5 1.5 1.5 1.5 1.5 1.5 1.5 1.5 1.5 1.5 1.5 1.5 1.5 
1.5 1.5 1.5 1.5 1.5 1.5 1.5 1.5 1.5 1.5 1.5 1.5 1.5 1.5 1.5 1.5 1.5 1.5 1.5 1.5 1.5 
1.5 1.5 1.5 1.5 1.5 1.5 1.5 1.5 1.5 1.5 1.5 1.5 1.5 1.5 1.5 1.5 1.5 1.5 1.5 1.5 1.5 
1.5 1.5 1.5 1.5 1.5 1.5 1.5 1.5 1.5 1.5 1.5 1.5 1.5 1.5 1.5 1.5 1.5 1.5 1.5 1.5 1.5 
1.5 1.5 1.5 1.5 1.5 1.5 1.5 1.5 1.5 1.5 1.5 1.5 1.5 1.5 1.5 1.5 1.5 1.5 1.5 1.5 1.5 
1.5 1.5 1.5 1.5 1.5 1.5 1.5 1.5 1.5 1.5 1.5 1.5 1.5 1.5 1.5 1.5 1.5 1.5 1.5 1.5 1.5 
1.5 1.5 1.5 1.5 1.5 1.5 1.5 1.5 1.5 1.5 1.5 1.5 1.5 1.5 1.5 1.5 1.5 1.5 1.5 1.5 1.5 
1.5 1.5 1.5 1.5 1.5 1.5 1.5 1.5 1.5 1.5 1.5 1.5 1.5 1.5 1.5 1.5 1.5 1.5 1.5 1.5 1.5 
1.5 1.5 1.5 1.5 1.5 1.5 1.5 1.5 1.5 1.5 1.5 1.5 1.5 1.5 1.5 1.5 1.5 1.5 1.5 1.5 1.5 
1.5 1.5 1.5 1.5 1.5 1.5 1.5 1.5 1.5 1.5 1.5 1.5 1.5 1.5 1.5 1.5 1.5 1.5 1.5 1.5 1.5 
1.5 1.5 1.5 1.5 1.5 1.5 1.5 1.5 1.5 1.5 1.5 1.5 1.5 1.5 1.5 1.5 1.5 1.5 1.5 1.5 1.5 
1.5 1.5 1.5 1.5 1.5 1.5 1.5 1.5 1.5 1.5 1.5 1.5 1.5 1.5 1.5 1.5 1.5 1.5 1.5 1.5 1.5 
1.5 1.5 1.5 1.5 1.5 1.5 1.5 1.5 1.5 1.5 1.5 1.5 1.5 1.5 1.5 1.5 1.5 1.5 1.5 1.5 1.5 
1.5 1.5 1.5 1.5 1.5 1.5 1.5 1.5 1.5 1.5 1.5 1.5 1.5 1.5 1.5 1.5 1.5 1.5 1.5 1.5 1.5 
1.5 1.5 1.5 1.5 1.5 1.5 1.5 1.5 1.5 1.5 1.5 1.5 1.5 1.5 1.5 1.5 1.5 1.5 1.5 1.5 1.5 
1.5 1.5 1.5 1.5 1.5 1.5 1.5 1.5 1.5 1.5 1.5 1.5 1.5 1.5 1.5 1.5 1.5 1.5 1.5 1.5 1.5 
1.5 1.5 1.5 1.5 1.5 1.5 1.5 1.5 1.5 1.5 1.5 1.5 1.5 1.5 1.5 1.5 1.5 1.5 1.5 1.5 1.5 
1.5 1.5 1.5 1.5 1.5 1.5 1.5 1.5 1.5 1.5 1.5 1.5 1.5 1.5 1.5 1.5 1.5 1.5 1.5 1.5 1.5 
1.5 1.5 1.5 1.5 1.5 1.5 1.5 1.5 1.5 1.5 1.5 1.5 1.5 1.5 1.5 1.5 1.5 1.5 1.5 1.5 1.5 
1.5 1.5 1.5 1.5 1.5 1.5 1.5 1.5 1.5 1.5 1.5 1.5 1.5 1.5 1.5 1.5 1.5 1.5 1.5 1.5 1.5 
</DataArray>
<DataArray Name="ne" NumberOfComponents="1" format="ascii" type="Float64">
1 1 1 1 1 1 1 1 1 1 1 1 1 1 1 1 1 1 1 1 1 
1 1 1 1 1 1 1 1 1 1 1 1 1 1 1 1 1 1 1 1 1 
1 1 1 1 1 1 1 1 1 1 1 1 1 1 1 1 1 1 1 1 1 
1 1 1 1 1 1 1 1 1 1 1 1 1 1 1 1 1 1 1 1 1 
1 1 1 1 1 1 1 1 1 1 1 1 1 1 1 1 1 1 1 1 1 
1 1 1 1 1 1 1 1 1 1 1 1 1 1 1 1 1 1 1 1 1 
1 1 1 1 1 1 1 1 1 1 1 1 1 1 1 1 1 1 1 1 1 
1 1 1 1 1 1 1 1 1 1 1 1 1 1 1 1 1 1 1 1 1 
1 1 1 1 1 1 1 1 1 1 1 1 1 1 1 1 1 1 1 1 1 
1 1 1 1 1 1 1 1 1 1 1 1 1 1 1 1 1 1 1 1 1 
1 1 1 1 1 1 1 1 1 1 1 1 1 1 1 1 1 1 1 1 1 
1 1 1 1 1 1 1 1 1 1 1 1 1 1 1 1 1 1 1 1 1 
1 1 1 1 1 1 1 1 1 1 1 1 1 1 1 1 1 1 1 1 1 
1 1 1 1 1 1 1 1 1 1 1 1 1 1 1 1 1 1 1 1 1 
1 1 1 1 1 1 1 1 1 1 1 1 1 1 1 1 1 1 1 1 1 
1 1 1 1 1 1 1 1 1 1 1 1 1 1 1 1 1 1 1 1 1 
1 1 1 1 1 1 1 1 1 1 1 1 1 1 1 1 1 1 1 1 1 
1 1 1 1 1 1 1 1 1 1 1 1 1 1 1 1 1 1 1 1 1 
1 1 1 1 1 1 1 1 1 1 1 1 1 1 1 1 1 1 1 1 1 
1 1 1 1 1 1 1 1 1 1 1 1 1 1 1 1 1 1 1 1 1 
1 1 1 1 1 1 1 1 1 1 1 1 1 1 1 1 1 1 1 1 1 
1 1 1 1 1 1 1 1 1 1 1 1 1 1 1 1 1 1 1 1 1 
1 1 1 1 1 1 1 1 1 1 1 1 1 1 1 1 1 1 1 1 1 
1 1 1 1 1 1 1 1 1 1 1 1 1 1 1 1 1 1 1 1 1 
1 1 1 1 1 1 1 1 1 1 1 1 1 1 1 1 1 1 1 1 1 
1 1 1 1 1 1 1 1 1 1 1 1 1 1 1 1 1 1 1 1 1 
1 1 1 1 1 1 1 1 1 1 1 1 1 1 1 1 1 1 1 1 1 
1 1 1 1 1 1 1 1 1 1 1 1 1 1 1 1 1 1 1 1 1 
1 1 1 1 1 1 1 1 1 1 1 1 1 1 1 1 1 1 1 1 1 
1 1 1 1 1 1 1 1 1 1 1 1 1 1 1 1 1 1 1 1 1 
1 1 1 1 1 1 1 1 1 1 1 1 1 1 1 1 1 1 1 1 1 
1 1 1 1 1 1 1 1 1 1 1 1 1 1 1 1 1 1 1 1 1 
1 1 1 1 1 1 1 1 1 1 1 1 1 1 1 1 1 1 1 1 1 
1 1 1 1 1 1 1 1 1 1 1 1 1 1 1 1 1 1 1 1 1 
1 1 1 1 1 1 1 1 1 1 1 1 1 1 1 1 1 1 1 1 1 
1 1 1 1 1 1 1 1 1 1 1 1 1 1 1 1 1 1 1 1 1 
1 1 1 1 1 1 1 1 1 1 1 1 1 1 1 1 1 1 1 1 1 
1 1 1 1 1 1 1 1 1 1 1 1 1 1 1 1 1 1 1 1 1 
1 1 1 1 1 1 1 1 1 1 1 1 1 1 1 1 1 1 1 1 1 
1 1 1 1 1 1 1 1 1 1 1 1 1 1 1 1 1 1 1 1 1 
1 1 1 1 1 1 1 1 1 1 1 1 1 1 1 1 1 1 1 1 1 
</DataArray>
</PointData>
</Piece>
</ImageData>
</VTKFile>
