<VTKFile type="ImageData">
<ImageData Origin="0 -10 0" Spacing="0.5 0.5 1" WholeExtent="0 20 0 40 0 0">
<Piece Extent="0 20 0 40 0 0">
<PointData>
<DataArray Name="f" NumberOfComponents="1" format="ascii" type="Float64">
1.611e-10 2.711e-12 9.316e-17 1.992e-19 0 0 0 0 0 0 0 0 0 0 0 0 0 0 0 0 0 
5.358e-08 1.179e-09 5.83e-13 5.31e-15 0 0 0 0 0 0 0 0 0 0 0 0 0 0 0 0 0 
1.342e-06 5.891e-08 4.262e-10 9.642e-12 4.895e-16 2.093e-18 0 0 0 0 0 0 0 0 0 0 0 0 0 0 0 
2.004e-05 2.197e-06 1.235e-07 3.633e-09 2.665e-12 4.879e-14 5.135e-16 2.495e-18 0 0 0 0 0 0 0 0 0 0 0 0 0 
0.0001189 2.328e-05 2.593e-06 1.533e-07 1.704e-09 7.76e-11 2.472e-12 5.159e-14 6.31e-16 3.658e-18 0 0 0 0 0 0 0 0 0 0 0 
0.0003922 0.0001339 2.864e-05 3.729e-06 2.451e-07 1.256e-08 7.574e-10 3.231e-11 9.161e-13 1.556e-14 1.297e-16 3.241e-19 0 0 0 0 0 0 0 0 0 
0.0007522 0.0004073 0.000144 3.256e-05 4.318e-06 4.168e-07 3.82e-08 2.48e-09 1.074e-10 2.792e-12 3.58e-14 1.413e-16 2.898e-20 0 0 0 0 0 0 0 0 
0.0009199 0.0007603 0.0004204 0.0001532 3.515e-05 5.741e-06 7.663e-07 7.233e-08 4.558e-09 1.737e-10 3.313e-12 2.041e-14 8.14e-18 0 0 0 0 0 0 0 0 
0.0007423 0.0009205 0.0007752 0.0004377 0.0001616 4.159e-05 7.982e-06 1.079e-06 9.76e-08 5.378e-09 1.514e-10 1.454e-12 1.127e-15 0 0 0 0 0 0 0 0 
0.0003973 0.000736 0.0009323 0.0007983 0.0004557 0.0001779 4.907e-05 9.485e-06 1.227e-06 9.754e-08 4.049e-09 6.07e-11 9.145e-14 0 0 0 0 0 0 0 0 
0.0001388 0.0003864 0.0007356 0.0009478 0.0008213 0.0004786 0.0001911 5.303e-05 9.845e-06 1.133e-06 6.963e-08 1.637e-09 4.785e-12 0 0 0 0 0 0 0 0 
3.049e-05 0.0001299 0.0003758 0.0007323 0.0009615 0.000837 0.0004901 0.0001971 5.293e-05 8.883e-06 8.143e-07 3.022e-08 1.711e-10 0 0 0 0 0 0 0 0 
3.96e-06 2.672e-05 0.0001204 0.0003619 0.0007293 0.0009627 0.0008422 0.0004978 0.0001958 4.845e-05 6.696e-06 3.96e-07 4.338e-09 1.225e-19 0 0 0 0 0 0 0 
2.753e-07 3.127e-06 2.291e-05 0.0001103 0.0003508 0.0007236 0.0009703 0.0008587 0.0005025 0.0001862 3.937e-05 3.759e-06 7.969e-08 9.62e-17 0 0 0 0 0 0 0 
8.702e-09 1.86e-07 2.368e-06 1.953e-05 0.0001024 0.0003468 0.0007368 0.0009999 0.0008888 0.0005029 0.000166 2.605e-05 1.072e-06 5.301e-14 1.718e-20 0 0 0 0 0 0 
9.121e-11 4.699e-09 1.143e-07 1.823e-06 1.683e-05 0.0001012 0.0003556 0.0007621 0.001056 0.0009362 0.0004947 0.0001309 1.057e-05 2.016e-11 1.657e-16 7.756e-20 0 0 0 0 0 
1.316e-13 3.698e-11 1.913e-09 7.677e-08 1.36e-06 1.67e-05 0.0001024 0.000359 0.000801 0.00115 0.001007 0.0004661 7.561e-05 5.116e-09 5.852e-13 4.437e-16 8.91e-20 0 0 0 0 
1.248e-17 3.743e-14 4.75e-12 1.104e-09 4.131e-08 1.382e-06 1.577e-05 9.435e-05 0.0003528 0.0008559 0.001305 0.001114 0.0003818 8.133e-07 7.743e-10 9.697e-13 3.14e-16 1.629e-20 0 0 0 
0 0 8.683e-16 2.306e-12 2.167e-10 4.61e-08 1.042e-06 1.124e-05 7.473e-05 0.0003263 0.0009286 0.001591 0.001284 7.144e-05 3.709e-07 8.278e-10 4.563e-13 3.942e-17 0 0 0 
0 0 0 0 1.207e-13 3.03e-10 1.482e-08 3.319e-07 4.539e-06 4.107e-05 0.0002497 0.000991 0.002343 0.002532 5.896e-05 2.762e-07 2.84e-10 4.339e-14 4.316e-19 0 0 
0 0 0 0 0 0 0 0 3.78e-20 2.723e-15 1.918e-11 2.928e-08 1.521e-05 0.003605 0.002611 3.629e-05 7.945e-08 2.302e-11 4.188e-16 0 0 
0 0 0 0 0 0 0 0 0 2.393e-18 2.289e-14 4.691e-11 3.218e-08 9.801e-06 0.002578 0.001228 0.0003232 5.537e-05 6.359e-06 4.82e-07 2.649e-08 
0 0 0 0 0 0 0 0 0 0 1.374e-17 3.732e-14 3.366e-11 1.33e-08 0.001162 0.001669 0.001047 0.0003863 9.194e-05 1.431e-05 1.591e-06 
0 0 0 0 0 0 0 0 0 0 0 1.336e-17 1.566e-14 8e-12 0.0003144 0.001057 0.001339 0.0009283 0.0003997 0.000111 2.165e-05 
0 0 0 0 0 0 0 0 0 0 0 0 2.887e-18 1.889e-15 5.665e-05 0.0004067 0.0009564 0.001159 0.000847 0.0003959 0.000128 
0 0 0 0 0 0 0 0 0 0 0 0 0 1.534e-19 7.157e-06 0.0001056 0.0004373 0.0008827 0.001049 0.0007916 0.0004081 
0 0 0 0 0 0 0 0 0 0 0 0 0 0 6.506e-07 1.943e-05 0.0001369 0.0004446 0.0008303 0.00098 0.0007801 
0 0 0 0 0 0 0 0 0 0 0 0 0 0 4.299e-08 2.59e-06 3.029e-05 0.0001543 0.0004418 0.0007942 0.0009501 
0 0 0 0 0 0 0 0 0 0 0 0 0 0 2.063e-09 2.511e-07 4.797e-06 3.762e-05 0.0001618 0.000434 0.0007633 
0 0 0 0 0 0 0 0 0 0 0 0 0 0 7.105e-11 1.757e-08 5.418e-07 6.445e-06 4.104e-05 0.0001616 0.0004108 
0 0 0 0 0 0 0 0 0 0 0 0 0 0 1.716e-12 8.685e-10 4.286e-08 7.655e-07 7.137e-06 4.077e-05 0.0001479 
0 0 0 0 0 0 0 0 0 0 0 0 0 0 2.8e-14 2.921e-11 2.295e-09 6.11e-08 8.28e-07 6.808e-06 3.499e-05 
0 0 0 0 0 0 0 0 0 0 0 0 0 0 2.908e-16 6.303e-13 7.858e-11 3.107e-09 6.099e-08 7.193e-07 5.225e-06 
0 0 0 0 0 0 0 0 0 0 0 0 0 0 1.743e-18 7.912e-15 1.564e-12 9.188e-11 2.619e-09 4.443e-08 4.589e-07 
0 0 0 0 0 0 0 0 0 0 0 0 0 0 0 4.851e-17 1.524e-14 1.34e-12 5.616e-11 1.391e-09 2.085e-08 
0 0 0 0 0 0 0 0 0 0 0 0 0 0 0 9.749e-20 4.918e-17 6.682e-15 4.295e-13 1.626e-11 3.755e-10 
0 0 0 0 0 0 0 0 0 0 0 0 0 0 0 0 0 1.229e-18 2.424e-16 2.178e-14 1.126e-12 
0 0 0 0 0 0 0 0 0 0 0 0 0 0 0 0 0 0 0 7.413e-19 1.773e-16 
0 0 0 0 0 0 0 0 0 0 0 0 0 0 0 0 0 0 0 0 0 
0 0 0 0 0 0 0 0 0 0 0 0 0 0 0 0 0 0 0 0 0 
0 0 0 0 0 0 0 0 0 0 0 0 0 0 0 0 0 0 0 0 0 
</DataArray>
<DataArray Name="E" NumberOfComponents="1" format="ascii" type="Float64">
6.24 5.99 5.491 4.992 4.493 3.994 3.495 2.996 2.497 1.998 1.499 1.001 0.5016 0.002985 -0.4953 -0.9938 -1.493 -1.992 -2.49 -2.989 -3.239 
6.24 5.99 5.491 4.992 4.493 3.994 3.495 2.996 2.497 1.998 1.499 1.001 0.5016 0.002985 -0.4953 -0.9938 -1.493 -1.992 -2.49 -2.989 -3.239 
6.24 5.99 5.491 4.992 4.493 3.994 3.495 2.996 2.497 1.998 1.499 1.001 0.5016 0.002985 -0.4953 -0.9938 -1.493 -1.992 -2.49 -2.989 -3.239 
6.24 5.99 5.491 4.992 4.493 3.994 3.495 2.996 2.497 1.998 1.499 1.001 0.5016 0.002985 -0.4953 -0.9938 -1.493 -1.992 -2.49 -2.989 -3.239 
6.24 5.99 5.491 4.992 4.493 3.994 3.495 2.996 2.497 1.998 1.499 1.001 0.5016 0.002985 -0.4953 -0.9938 -1.493 -1.992 -2.49 -2.989 -3.239 
6.24 5.99 5.491 4.992 4.493 3.994 3.495 2.996 2.497 1.998 1.499 1.001 0.5016 0.002985 -0.4953 -0.9938 -1.493 -1.992 -2.49 -2.989 -3.239 
6.24 5.99 5.491 4.992 4.493 3.994 3.495 2.996 2.497 1.998 1.499 1.001 0.5016 0.002985 -0.4953 -0.9938 -1.493 -1.992 -2.49 -2.989 -3.239 
6.24 5.99 5.491 4.992 4.493 3.994 3.495 2.996 2.497 1.998 1.499 1.001 0.5016 0.002985 -0.4953 -0.9938 -1.493 -1.992 -2.49 -2.989 -3.239 
6.24 5.99 5.491 4.992 4.493 3.994 3.495 2.996 2.497 1.998 1.499 1.001 0.5016 0.002985 -0.4953 -0.9938 -1.493 -1.992 -2.49 -2.989 -3.239 
6.24 5.99 5.491 4.992 4.493 3.994 3.495 2.996 2.497 1.998 1.499 1.001 0.5016 0.002985 -0.4953 -0.9938 -1.493 -1.992 -2.49 -2.989 -3.239 
6.24 5.99 5.491 4.992 4.493 3.994 3.495 2.996 2.497 1.998 1.499 1.001 0.5016 0.002985 -0.4953 -0.9938 -1.493 -1.992 -2.49 -2.989 -3.239 
6.24 5.99 5.491 4.992 4.493 3.994 3.495 2.996 2.497 1.998 1.499 1.001 0.5016 0.002985 -0.4953 -0.9938 -1.493 -1.992 -2.49 -2.989 -3.239 
6.24 5.99 5.491 4.992 4.493 3.994 3.495 2.996 2.497 1.998 1.499 1.001 0.5016 0.002985 -0.4953 -0.9938 -1.493 -1.992 -2.49 -2.989 -3.239 
6.24 5.99 5.491 4.992 4.493 3.994 3.495 2.996 2.497 1.998 1.499 1.001 0.5016 0.002985 -0.4953 -0.9938 -1.493 -1.992 -2.49 -2.989 -3.239 
6.24 5.99 5.491 4.992 4.493 3.994 3.495 2.996 2.497 1.998 1.499 1.001 0.5016 0.002985 -0.4953 -0.9938 -1.493 -1.992 -2.49 -2.989 -3.239 
6.24 5.99 5.491 4.992 4.493 3.994 3.495 2.996 2.497 1.998 1.499 1.001 0.5016 0.002985 -0.4953 -0.9938 -1.493 -1.992 -2.49 -2.989 -3.239 
6.24 5.99 5.491 4.992 4.493 3.994 3.495 2.996 2.497 1.998 1.499 1.001 0.5016 0.002985 -0.4953 -0.9938 -1.493 -1.992 -2.49 -2.989 -3.239 
6.24 5.99 5.491 4.992 4.493 3.994 3.495 2.996 2.497 1.998 1.499 1.001 0.5016 0.002985 -0.4953 -0.9938 -1.493 -1.992 -2.49 -2.989 -3.239 
6.24 5.99 5.491 4.992 4.493 3.994 3.495 2.996 2.497 1.998 1.499 1.001 0.5016 0.002985 -0.4953 -0.9938 -1.493 -1.992 -2.49 -2.989 -3.239 
6.24 5.99 5.491 4.992 4.493 3.994 3.495 2.996 2.497 1.998 1.499 1.001 0.5016 0.002985 -0.4953 -0.9938 -1.493 -1.992 -2.49 -2.989 -3.239 
6.24 5.99 5.491 4.992 4.493 3.994 3.495 2.996 2.497 1.998 1.499 1.001 0.5016 0.002985 -0.4953 -0.9938 -1.493 -1.992 -2.49 -2.989 -3.239 
6.24 5.99 5.491 4.992 4.493 3.994 3.495 2.996 2.497 1.998 1.499 1.001 0.5016 0.002985 -0.4953 -0.9938 -1.493 -1.992 -2.49 -2.989 -3.239 
6.24 5.99 5.491 4.992 4.493 3.994 3.495 2.996 2.497 1.998 1.499 1.001 0.5016 0.002985 -0.4953 -0.9938 -1.493 -1.992 -2.49 -2.989 -3.239 
6.24 5.99 5.491 4.992 4.493 3.994 3.495 2.996 2.497 1.998 1.499 1.001 0.5016 0.002985 -0.4953 -0.9938 -1.493 -1.992 -2.49 -2.989 -3.239 
6.24 5.99 5.491 4.992 4.493 3.994 3.495 2.996 2.497 1.998 1.499 1.001 0.5016 0.002985 -0.4953 -0.9938 -1.493 -1.992 -2.49 -2.989 -3.239 
6.24 5.99 5.491 4.992 4.493 3.994 3.495 2.996 2.497 1.998 1.499 1.001 0.5016 0.002985 -0.4953 -0.9938 -1.493 -1.992 -2.49 -2.989 -3.239 
6.24 5.99 5.491 4.992 4.493 3.994 3.495 2.996 2.497 1.998 1.499 1.001 0.5016 0.002985 -0.4953 -0.9938 -1.493 -1.992 -2.49 -2.989 -3.239 
6.24 5.99 5.491 4.992 4.493 3.994 3.495 2.996 2.497 1.998 1.499 1.001 0.5016 0.002985 -0.4953 -0.9938 -1.493 -1.992 -2.49 -2.989 -3.239 
6.24 5.99 5.491 4.992 4.493 3.994 3.495 2.996 2.497 1.998 1.499 1.001 0.5016 0.002985 -0.4953 -0.9938 -1.493 -1.992 -2.49 -2.989 -3.239 
6.24 5.99 5.491 4.992 4.493 3.994 3.495 2.996 2.497 1.998 1.499 1.001 0.5016 0.002985 -0.4953 -0.9938 -1.493 -1.992 -2.49 -2.989 -3.239 
6.24 5.99 5.491 4.992 4.493 3.994 3.495 2.996 2.497 1.998 1.499 1.001 0.5016 0.002985 -0.4953 -0.9938 -1.493 -1.992 -2.49 -2.989 -3.239 
6.24 5.99 5.491 4.992 4.493 3.994 3.495 2.996 2.497 1.998 1.499 1.001 0.5016 0.002985 -0.4953 -0.9938 -1.493 -1.992 -2.49 -2.989 -3.239 
6.24 5.99 5.491 4.992 4.493 3.994 3.495 2.996 2.497 1.998 1.499 1.001 0.5016 0.002985 -0.4953 -0.9938 -1.493 -1.992 -2.49 -2.989 -3.239 
6.24 5.99 5.491 4.992 4.493 3.994 3.495 2.996 2.497 1.998 1.499 1.001 0.5016 0.002985 -0.4953 -0.9938 -1.493 -1.992 -2.49 -2.989 -3.239 
6.24 5.99 5.491 4.992 4.493 3.994 3.495 2.996 2.497 1.998 1.499 1.001 0.5016 0.002985 -0.4953 -0.9938 -1.493 -1.992 -2.49 -2.989 -3.239 
6.24 5.99 5.491 4.992 4.493 3.994 3.495 2.996 2.497 1.998 1.499 1.001 0.5016 0.002985 -0.4953 -0.9938 -1.493 -1.992 -2.49 -2.989 -3.239 
6.24 5.99 5.491 4.992 4.493 3.994 3.495 2.996 2.497 1.998 1.499 1.001 0.5016 0.002985 -0.4953 -0.9938 -1.493 -1.992 -2.49 -2.989 -3.239 
6.24 5.99 5.491 4.992 4.493 3.994 3.495 2.996 2.497 1.998 1.499 1.001 0.5016 0.002985 -0.4953 -0.9938 -1.493 -1.992 -2.49 -2.989 -3.239 
6.24 5.99 5.491 4.992 4.493 3.994 3.495 2.996 2.497 1.998 1.499 1.001 0.5016 0.002985 -0.4953 -0.9938 -1.493 -1.992 -2.49 -2.989 -3.239 
6.24 5.99 5.491 4.992 4.493 3.994 3.495 2.996 2.497 1.998 1.499 1.001 0.5016 0.002985 -0.4953 -0.9938 -1.493 -1.992 -2.49 -2.989 -3.239 
6.24 5.99 5.491 4.992 4.493 3.994 3.495 2.996 2.497 1.998 1.499 1.001 0.5016 0.002985 -0.4953 -0.9938 -1.493 -1.992 -2.49 -2.989 -3.239 
</DataArray>
<DataArray Name="ne" NumberOfComponents="1" format="ascii" type="Float64">
0.001858 0.00187 0.001888 0.001907 0.00193 0.001957 0.001994 0.002038 0.002089 0.002152 0.002228 0.002297 0.002189 0.003197 0.003613 0.002397 0.002262 0.002142 0.002046 0.001968 0.001923 
0.001858 0.00187 0.001888 0.001907 0.00193 0.001957 0.001994 0.002038 0.002089 0.002152 0.002228 0.002297 0.002189 0.003197 0.003613 0.002397 0.002262 0.002142 0.002046 0.001968 0.001923 
0.001858 0.00187 0.001888 0.001907 0.00193 0.001957 0.001994 0.002038 0.002089 0.002152 0.002228 0.002297 0.002189 0.003197 0.003613 0.002397 0.002262 0.002142 0.002046 0.001968 0.001923 
0.001858 0.00187 0.001888 0.001907 0.00193 0.001957 0.001994 0.002038 0.002089 0.002152 0.002228 0.002297 0.002189 0.003197 0.003613 0.002397 0.002262 0.002142 0.002046 0.001968 0.001923 
0.001858 0.00187 0.001888 0.001907 0.00193 0.001957 0.001994 0.002038 0.002089 0.002152 0.002228 0.002297 0.002189 0.003197 0.003613 0.002397 0.002262 0.002142 0.002046 0.001968 0.001923 
0.001858 0.00187 0.001888 0.001907 0.00193 0.001957 0.001994 0.002038 0.002089 0.002152 0.002228 0.002297 0.002189 0.003197 0.003613 0.002397 0.002262 0.002142 0.002046 0.001968 0.001923 
0.001858 0.00187 0.001888 0.001907 0.00193 0.001957 0.001994 0.002038 0.002089 0.002152 0.002228 0.002297 0.002189 0.003197 0.003613 0.002397 0.002262 0.002142 0.002046 0.001968 0.001923 
0.001858 0.00187 0.001888 0.001907 0.00193 0.001957 0.001994 0.002038 0.002089 0.002152 0.002228 0.002297 0.002189 0.003197 0.003613 0.002397 0.002262 0.002142 0.002046 0.001968 0.001923 
0.001858 0.00187 0.001888 0.001907 0.00193 0.001957 0.001994 0.002038 0.002089 0.002152 0.002228 0.002297 0.002189 0.003197 0.003613 0.002397 0.002262 0.002142 0.002046 0.001968 0.001923 
0.001858 0.00187 0.001888 0.001907 0.00193 0.001957 0.001994 0.002038 0.002089 0.002152 0.002228 0.002297 0.002189 0.003197 0.003613 0.002397 0.002262 0.002142 0.002046 0.001968 0.001923 
0.001858 0.00187 0.001888 0.001907 0.00193 0.001957 0.001994 0.002038 0.002089 0.002152 0.002228 0.002297 0.002189 0.003197 0.003613 0.002397 0.002262 0.002142 0.002046 0.001968 0.001923 
0.001858 0.00187 0.001888 0.001907 0.00193 0.001957 0.001994 0.002038 0.002089 0.002152 0.002228 0.002297 0.002189 0.003197 0.003613 0.002397 0.002262 0.002142 0.002046 0.001968 0.001923 
0.001858 0.00187 0.001888 0.001907 0.00193 0.001957 0.001994 0.002038 0.002089 0.002152 0.002228 0.002297 0.002189 0.003197 0.003613 0.002397 0.002262 0.002142 0.002046 0.001968 0.001923 
0.001858 0.00187 0.001888 0.001907 0.00193 0.001957 0.001994 0.002038 0.002089 0.002152 0.002228 0.002297 0.002189 0.003197 0.003613 0.002397 0.002262 0.002142 0.002046 0.001968 0.001923 
0.001858 0.00187 0.001888 0.001907 0.00193 0.001957 0.001994 0.002038 0.002089 0.002152 0.002228 0.002297 0.002189 0.003197 0.003613 0.002397 0.002262 0.002142 0.002046 0.001968 0.001923 
0.001858 0.00187 0.001888 0.001907 0.00193 0.001957 0.001994 0.002038 0.002089 0.002152 0.002228 0.002297 0.002189 0.003197 0.003613 0.002397 0.002262 0.002142 0.002046 0.001968 0.001923 
0.001858 0.00187 0.001888 0.001907 0.00193 0.001957 0.001994 0.002038 0.002089 0.002152 0.002228 0.002297 0.002189 0.003197 0.003613 0.002397 0.002262 0.002142 0.002046 0.001968 0.001923 
0.001858 0.00187 0.001888 0.001907 0.00193 0.001957 0.001994 0.002038 0.002089 0.002152 0.002228 0.002297 0.002189 0.003197 0.003613 0.002397 0.002262 0.002142 0.002046 0.001968 0.001923 
0.001858 0.00187 0.001888 0.001907 0.00193 0.001957 0.001994 0.002038 0.002089 0.002152 0.002228 0.002297 0.002189 0.003197 0.003613 0.002397 0.002262 0.002142 0.002046 0.001968 0.001923 
0.001858 0.00187 0.001888 0.001907 0.00193 0.001957 0.001994 0.002038 0.002089 0.002152 0.002228 0.002297 0.002189 0.003197 0.003613 0.002397 0.002262 0.002142 0.002046 0.001968 0.001923 
0.001858 0.00187 0.001888 0.001907 0.00193 0.001957 0.001994 0.002038 0.002089 0.002152 0.002228 0.002297 0.002189 0.003197 0.003613 0.002397 0.002262 0.002142 0.002046 0.001968 0.001923 
0.001858 0.00187 0.001888 0.001907 0.00193 0.001957 0.001994 0.002038 0.002089 0.002152 0.002228 0.002297 0.002189 0.003197 0.003613 0.002397 0.002262 0.002142 0.002046 0.001968 0.001923 
0.001858 0.00187 0.001888 0.001907 0.00193 0.001957 0.001994 0.002038 0.002089 0.002152 0.002228 0.002297 0.002189 0.003197 0.003613 0.002397 0.002262 0.002142 0.002046 0.001968 0.001923 
0.001858 0.00187 0.001888 0.001907 0.00193 0.001957 0.001994 0.002038 0.002089 0.002152 0.002228 0.002297 0.002189 0.003197 0.003613 0.002397 0.002262 0.002142 0.002046 0.001968 0.001923 
0.001858 0.00187 0.001888 0.001907 0.00193 0.001957 0.001994 0.002038 0.002089 0.002152 0.002228 0.002297 0.002189 0.003197 0.003613 0.002397 0.002262 0.002142 0.002046 0.001968 0.001923 
0.001858 0.00187 0.001888 0.001907 0.00193 0.001957 0.001994 0.002038 0.002089 0.002152 0.002228 0.002297 0.002189 0.003197 0.003613 0.002397 0.002262 0.002142 0.002046 0.001968 0.001923 
0.001858 0.00187 0.001888 0.001907 0.00193 0.001957 0.001994 0.002038 0.002089 0.002152 0.002228 0.002297 0.002189 0.003197 0.003613 0.002397 0.002262 0.002142 0.002046 0.001968 0.001923 
0.001858 0.00187 0.001888 0.001907 0.00193 0.001957 0.001994 0.002038 0.002089 0.002152 0.002228 0.002297 0.002189 0.003197 0.003613 0.002397 0.002262 0.002142 0.002046 0.001968 0.001923 
0.001858 0.00187 0.001888 0.001907 0.00193 0.001957 0.001994 0.002038 0.002089 0.002152 0.002228 0.002297 0.002189 0.003197 0.003613 0.002397 0.002262 0.002142 0.002046 0.001968 0.001923 
0.001858 0.00187 0.001888 0.001907 0.00193 0.001957 0.001994 0.002038 0.002089 0.002152 0.002228 0.002297 0.002189 0.003197 0.003613 0.002397 0.002262 0.002142 0.002046 0.001968 0.001923 
0.001858 0.00187 0.001888 0.001907 0.00193 0.001957 0.001994 0.002038 0.002089 0.002152 0.002228 0.002297 0.002189 0.003197 0.003613 0.002397 0.002262 0.002142 0.002046 0.001968 0.001923 
0.001858 0.00187 0.001888 0.001907 0.00193 0.001957 0.001994 0.002038 0.002089 0.002152 0.002228 0.002297 0.002189 0.003197 0.003613 0.002397 0.002262 0.002142 0.002046 0.001968 0.001923 
0.001858 0.00187 0.001888 0.001907 0.00193 0.001957 0.001994 0.002038 0.002089 0.002152 0.002228 0.002297 0.002189 0.003197 0.003613 0.002397 0.002262 0.002142 0.002046 0.001968 0.001923 
0.001858 0.00187 0.001888 0.001907 0.00193 0.001957 0.001994 0.002038 0.002089 0.002152 0.002228 0.002297 0.002189 0.003197 0.003613 0.002397 0.002262 0.002142 0.002046 0.001968 0.001923 
0.001858 0.00187 0.001888 0.001907 0.00193 0.001957 0.001994 0.002038 0.002089 0.002152 0.002228 0.002297 0.002189 0.003197 0.003613 0.002397 0.002262 0.002142 0.002046 0.001968 0.001923 
0.001858 0.00187 0.001888 0.001907 0.00193 0.001957 0.001994 0.002038 0.002089 0.002152 0.002228 0.002297 0.002189 0.003197 0.003613 0.002397 0.002262 0.002142 0.002046 0.001968 0.001923 
0.001858 0.00187 0.001888 0.001907 0.00193 0.001957 0.001994 0.002038 0.002089 0.002152 0.002228 0.002297 0.002189 0.003197 0.003613 0.002397 0.002262 0.002142 0.002046 0.001968 0.001923 
0.001858 0.00187 0.001888 0.001907 0.00193 0.001957 0.001994 0.002038 0.002089 0.002152 0.002228 0.002297 0.002189 0.003197 0.003613 0.002397 0.002262 0.002142 0.002046 0.001968 0.001923 
0.001858 0.00187 0.001888 0.001907 0.00193 0.001957 0.001994 0.002038 0.002089 0.002152 0.002228 0.002297 0.002189 0.003197 0.003613 0.002397 0.002262 0.002142 0.002046 0.001968 0.001923 
0.001858 0.00187 0.001888 0.001907 0.00193 0.001957 0.001994 0.002038 0.002089 0.002152 0.002228 0.002297 0.002189 0.003197 0.003613 0.002397 0.002262 0.002142 0.002046 0.001968 0.001923 
0.001858 0.00187 0.001888 0.001907 0.00193 0.001957 0.001994 0.002038 0.002089 0.002152 0.002228 0.002297 0.002189 0.003197 0.003613 0.002397 0.002262 0.002142 0.002046 0.001968 0.001923 
</DataArray>
</PointData>
</Piece>
</ImageData>
</VTKFile>
