<VTKFile type="ImageData">
<ImageData Origin="0 -10 0" Spacing="0.5 0.5 1" WholeExtent="0 20 0 40 0 0">
<Piece Extent="0 20 0 40 0 0">
<PointData>
<DataArray Name="f" NumberOfComponents="1" format="ascii" type="Float64">
0.1565 0.158 0.1588 0.1594 0.16 0.1604 0.1608 0.1611 0.1612 0.1613 0.1613 0.1613 0.1612 0.161 0.1607 0.1603 0.1599 0.1593 0.1586 0.1582 0.1565 
0.1318 0.1336 0.1346 0.1355 0.1361 0.1367 0.1371 0.1375 0.1376 0.1378 0.1377 0.1377 0.1374 0.1373 0.1368 0.1365 0.1358 0.1353 0.1342 0.1339 0.1318 
0.1046 0.1067 0.1077 0.1087 0.1093 0.1101 0.1104 0.1109 0.1109 0.1113 0.1109 0.1111 0.1106 0.1106 0.1099 0.1097 0.1087 0.1085 0.107 0.1069 0.1046 
0.07825 0.08027 0.08117 0.08232 0.0828 0.08374 0.08382 0.08459 0.08431 0.08494 0.08432 0.08483 0.08391 0.0843 0.08311 0.08338 0.08193 0.08208 0.08033 0.08039 0.07825 
0.05503 0.05679 0.05764 0.05862 0.05912 0.05992 0.06007 0.06073 0.06053 0.0611 0.06054 0.06105 0.06014 0.0606 0.05936 0.05976 0.05825 0.05853 0.0568 0.05691 0.05503 
0.03647 0.03775 0.03852 0.0392 0.03975 0.04024 0.04057 0.0409 0.04102 0.04121 0.0411 0.04118 0.04083 0.04083 0.04021 0.04016 0.03927 0.03919 0.03802 0.03793 0.03647 
0.02275 0.02363 0.0242 0.02469 0.0251 0.02544 0.0257 0.02592 0.02605 0.02615 0.02615 0.02615 0.026 0.0259 0.02559 0.02542 0.02491 0.02471 0.02396 0.02379 0.02275 
0.01334 0.01393 0.01433 0.01466 0.01492 0.01514 0.01531 0.01543 0.01552 0.01557 0.01558 0.01556 0.01549 0.01541 0.01524 0.0151 0.01481 0.01463 0.01418 0.01401 0.01334 
0.007333 0.00772 0.007992 0.008211 0.00838 0.008507 0.008597 0.008657 0.00869 0.008702 0.008693 0.008667 0.008619 0.008556 0.008463 0.008364 0.008211 0.008083 0.007844 0.007716 0.007333 
0.003743 0.004 0.004188 0.004337 0.004449 0.004527 0.004574 0.004596 0.004598 0.004584 0.004558 0.004522 0.004478 0.004427 0.004367 0.004302 0.004219 0.00414 0.004019 0.003939 0.003743 
0.001754 0.001915 0.002041 0.002145 0.002225 0.002281 0.002312 0.002323 0.002316 0.002295 0.002264 0.002227 0.002185 0.002141 0.002096 0.00205 0.002 0.001952 0.001892 0.001846 0.001754 
0.0007451 0.0008335 0.0009108 0.0009791 0.001036 0.001078 0.001106 0.001119 0.001117 0.001103 0.001079 0.001049 0.001014 0.0009788 0.0009435 0.0009094 0.0008764 0.0008456 0.0008131 0.000787 0.0007451 
0.0002843 0.0003249 0.0003655 0.0004043 0.0004397 0.0004698 0.0004929 0.0005075 0.000513 0.0005094 0.0004976 0.0004793 0.0004564 0.0004313 0.0004058 0.0003814 0.0003588 0.0003385 0.0003195 0.0003042 0.0002843 
9.73e-05 0.0001121 0.0001299 0.0001483 0.0001665 0.0001838 0.0001992 0.0002115 0.0002198 0.000223 0.000221 0.0002138 0.0002023 0.0001877 0.0001717 0.0001557 0.0001408 0.0001277 0.0001162 0.0001072 9.73e-05 
3.017e-05 3.416e-05 4.066e-05 4.774e-05 5.53e-05 6.315e-05 7.099e-05 7.837e-05 8.472e-05 8.938e-05 9.171e-05 9.123e-05 8.778e-05 8.164e-05 7.352e-05 6.442e-05 5.538e-05 4.725e-05 4.039e-05 3.513e-05 3.017e-05 
8.821e-06 9.383e-06 1.137e-05 1.362e-05 1.615e-05 1.894e-05 2.198e-05 2.518e-05 2.84e-05 3.142e-05 3.39e-05 3.547e-05 3.577e-05 3.452e-05 3.173e-05 2.769e-05 2.299e-05 1.833e-05 1.43e-05 1.127e-05 8.821e-06 
2.848e-06 2.822e-06 3.357e-06 3.949e-06 4.618e-06 5.383e-06 6.259e-06 7.257e-06 8.375e-06 9.586e-06 1.083e-05 1.198e-05 1.288e-05 1.33e-05 1.304e-05 1.197e-05 1.017e-05 7.93e-06 5.721e-06 3.994e-06 2.848e-06 
1.631e-06 2.115e-06 2.367e-06 2.531e-06 2.647e-06 2.745e-06 2.849e-06 2.977e-06 3.145e-06 3.367e-06 3.649e-06 3.986e-06 4.355e-06 4.7e-06 4.929e-06 4.918e-06 4.554e-06 3.806e-06 2.824e-06 1.958e-06 1.631e-06 
2.163e-06 4.029e-06 4.652e-06 4.954e-06 5.03e-06 4.949e-06 4.762e-06 4.509e-06 4.222e-06 3.925e-06 3.639e-06 3.379e-06 3.156e-06 2.977e-06 2.836e-06 2.713e-06 2.557e-06 2.305e-06 1.934e-06 1.646e-06 2.163e-06 
4.44e-06 8.981e-06 1.09e-05 1.201e-05 1.254e-05 1.261e-05 1.234e-05 1.181e-05 1.11e-05 1.027e-05 9.376e-06 8.445e-06 7.513e-06 6.604e-06 5.739e-06 4.933e-06 4.196e-06 3.529e-06 2.93e-06 2.592e-06 4.44e-06 
1.096e-05 2.008e-05 2.505e-05 2.834e-05 3.032e-05 3.123e-05 3.127e-05 3.061e-05 2.942e-05 2.781e-05 2.59e-05 2.379e-05 2.155e-05 1.925e-05 1.696e-05 1.471e-05 1.254e-05 1.05e-05 8.612e-06 6.907e-06 1.096e-05 
2.88e-05 4.555e-05 5.665e-05 6.467e-05 7.014e-05 7.343e-05 7.483e-05 7.462e-05 7.307e-05 7.043e-05 6.691e-05 6.272e-05 5.803e-05 5.299e-05 4.774e-05 4.24e-05 3.707e-05 3.186e-05 2.687e-05 2.216e-05 2.88e-05 
7.453e-05 0.0001052 0.0001273 0.0001444 0.0001571 0.0001657 0.0001706 0.0001723 0.0001711 0.0001674 0.0001616 0.0001541 0.0001452 0.0001351 0.0001242 0.0001127 0.0001008 8.887e-05 7.701e-05 6.548e-05 7.453e-05 
0.0001857 0.0002411 0.0002818 0.0003153 0.0003413 0.0003603 0.0003727 0.0003791 0.0003799 0.0003759 0.0003674 0.000355 0.0003394 0.0003209 0.0003 0.0002773 0.0002531 0.000228 0.0002023 0.0001766 0.0001857 
0.0004398 0.0005373 0.0006082 0.0006691 0.0007179 0.0007554 0.0007818 0.0007978 0.0008041 0.0008013 0.0007902 0.0007715 0.000746 0.0007144 0.0006774 0.0006358 0.0005902 0.0005415 0.0004905 0.000438 0.0004398 
0.0009841 0.00115 0.001267 0.001372 0.001457 0.001525 0.001575 0.001608 0.001625 0.001627 0.001614 0.001588 0.001549 0.001498 0.001437 0.001366 0.001286 0.001198 0.001104 0.001005 0.0009841 
0.002075 0.002347 0.00253 0.002701 0.002841 0.002954 0.003041 0.003102 0.003137 0.003149 0.003137 0.003102 0.003047 0.00297 0.002874 0.00276 0.002629 0.002482 0.002321 0.002147 0.002075 
0.004121 0.00455 0.00482 0.005086 0.005301 0.00548 0.00562 0.005721 0.005786 0.005814 0.005807 0.005765 0.005689 0.00558 0.005438 0.005265 0.005062 0.004831 0.004572 0.004288 0.004121 
0.007712 0.008361 0.008736 0.009132 0.009444 0.009711 0.009921 0.01008 0.01018 0.01024 0.01024 0.01019 0.01009 0.009947 0.009748 0.009501 0.009205 0.008861 0.00847 0.008035 0.007712 
0.01362 0.01455 0.01504 0.0156 0.01603 0.01641 0.0167 0.01693 0.01709 0.01718 0.0172 0.01715 0.01703 0.01684 0.01658 0.01624 0.01583 0.01535 0.01479 0.01417 0.01362 
0.0227 0.02398 0.02457 0.02535 0.02588 0.0264 0.02679 0.02711 0.02733 0.02747 0.02751 0.02746 0.02732 0.02708 0.02675 0.02631 0.02578 0.02514 0.0244 0.02356 0.0227 
0.03575 0.03743 0.03808 0.03911 0.03974 0.04042 0.04089 0.04132 0.0416 0.04179 0.04186 0.04182 0.04166 0.04138 0.04097 0.04044 0.03977 0.03898 0.03804 0.03698 0.03575 
0.05327 0.05533 0.05598 0.0573 0.05796 0.05885 0.05936 0.05992 0.06022 0.0605 0.06056 0.06055 0.06034 0.06004 0.05955 0.05894 0.05815 0.05723 0.05612 0.05486 0.05327 
0.07511 0.07752 0.07807 0.07972 0.08029 0.08143 0.08186 0.08262 0.08284 0.08325 0.08321 0.08329 0.08297 0.0827 0.08209 0.08148 0.08057 0.0796 0.07836 0.07702 0.07511 
0.1003 0.1029 0.1033 0.1053 0.1056 0.107 0.1072 0.1082 0.1081 0.1088 0.1085 0.1088 0.1082 0.1081 0.1073 0.1068 0.1058 0.1049 0.1036 0.1024 0.1003 
0.1269 0.1295 0.1296 0.1318 0.1317 0.1335 0.1331 0.1345 0.134 0.1349 0.1342 0.1347 0.1339 0.134 0.1331 0.1328 0.1318 0.1312 0.1299 0.1289 0.1269 
0.152 0.1545 0.1543 0.1563 0.1559 0.1575 0.157 0.1581 0.1576 0.1582 0.1577 0.158 0.1574 0.1574 0.1568 0.1566 0.1559 0.1554 0.1545 0.1537 0.152 
0.1725 0.1741 0.1741 0.1751 0.1751 0.1757 0.1756 0.1759 0.1758 0.1759 0.1757 0.1757 0.1756 0.1755 0.1753 0.1751 0.1748 0.1745 0.1741 0.1735 0.1725 
0.1853 0.1858 0.1858 0.1859 0.1858 0.1857 0.1856 0.1855 0.1854 0.1854 0.1855 0.1855 0.1856 0.1857 0.1858 0.1858 0.1859 0.1859 0.1858 0.1856 0.1853 
0.1881 0.1871 0.1869 0.1863 0.1858 0.1855 0.1854 0.1854 0.1855 0.1857 0.1859 0.1862 0.1865 0.1867 0.187 0.1873 0.1875 0.1877 0.1878 0.188 0.1881 
0.179 0.1767 0.1762 0.1761 0.176 0.1762 0.1764 0.1767 0.1771 0.1774 0.1777 0.178 0.1782 0.1784 0.1786 0.1787 0.1789 0.1789 0.179 0.179 0.179 
</DataArray>
<DataArray Name="E" NumberOfComponents="1" format="ascii" type="Float64">
1.902 1.874 1.822 1.774 1.729 1.686 1.647 1.609 1.572 1.536 1.501 1.465 1.429 1.392 1.354 1.314 1.271 1.225 1.177 1.124 1.096 
1.902 1.874 1.822 1.774 1.729 1.686 1.647 1.609 1.572 1.536 1.501 1.465 1.429 1.392 1.354 1.314 1.271 1.225 1.177 1.124 1.096 
1.902 1.874 1.822 1.774 1.729 1.686 1.647 1.609 1.572 1.536 1.501 1.465 1.429 1.392 1.354 1.314 1.271 1.225 1.177 1.124 1.096 
1.902 1.874 1.822 1.774 1.729 1.686 1.647 1.609 1.572 1.536 1.501 1.465 1.429 1.392 1.354 1.314 1.271 1.225 1.177 1.124 1.096 
1.902 1.874 1.822 1.774 1.729 1.686 1.647 1.609 1.572 1.536 1.501 1.465 1.429 1.392 1.354 1.314 1.271 1.225 1.177 1.124 1.096 
1.902 1.874 1.822 1.774 1.729 1.686 1.647 1.609 1.572 1.536 1.501 1.465 1.429 1.392 1.354 1.314 1.271 1.225 1.177 1.124 1.096 
1.902 1.874 1.822 1.774 1.729 1.686 1.647 1.609 1.572 1.536 1.501 1.465 1.429 1.392 1.354 1.314 1.271 1.225 1.177 1.124 1.096 
1.902 1.874 1.822 1.774 1.729 1.686 1.647 1.609 1.572 1.536 1.501 1.465 1.429 1.392 1.354 1.314 1.271 1.225 1.177 1.124 1.096 
1.902 1.874 1.822 1.774 1.729 1.686 1.647 1.609 1.572 1.536 1.501 1.465 1.429 1.392 1.354 1.314 1.271 1.225 1.177 1.124 1.096 
1.902 1.874 1.822 1.774 1.729 1.686 1.647 1.609 1.572 1.536 1.501 1.465 1.429 1.392 1.354 1.314 1.271 1.225 1.177 1.124 1.096 
1.902 1.874 1.822 1.774 1.729 1.686 1.647 1.609 1.572 1.536 1.501 1.465 1.429 1.392 1.354 1.314 1.271 1.225 1.177 1.124 1.096 
1.902 1.874 1.822 1.774 1.729 1.686 1.647 1.609 1.572 1.536 1.501 1.465 1.429 1.392 1.354 1.314 1.271 1.225 1.177 1.124 1.096 
1.902 1.874 1.822 1.774 1.729 1.686 1.647 1.609 1.572 1.536 1.501 1.465 1.429 1.392 1.354 1.314 1.271 1.225 1.177 1.124 1.096 
1.902 1.874 1.822 1.774 1.729 1.686 1.647 1.609 1.572 1.536 1.501 1.465 1.429 1.392 1.354 1.314 1.271 1.225 1.177 1.124 1.096 
1.902 1.874 1.822 1.774 1.729 1.686 1.647 1.609 1.572 1.536 1.501 1.465 1.429 1.392 1.354 1.314 1.271 1.225 1.177 1.124 1.096 
1.902 1.874 1.822 1.774 1.729 1.686 1.647 1.609 1.572 1.536 1.501 1.465 1.429 1.392 1.354 1.314 1.271 1.225 1.177 1.124 1.096 
1.902 1.874 1.822 1.774 1.729 1.686 1.647 1.609 1.572 1.536 1.501 1.465 1.429 1.392 1.354 1.314 1.271 1.225 1.177 1.124 1.096 
1.902 1.874 1.822 1.774 1.729 1.686 1.647 1.609 1.572 1.536 1.501 1.465 1.429 1.392 1.354 1.314 1.271 1.225 1.177 1.124 1.096 
1.902 1.874 1.822 1.774 1.729 1.686 1.647 1.609 1.572 1.536 1.501 1.465 1.429 1.392 1.354 1.314 1.271 1.225 1.177 1.124 1.096 
1.902 1.874 1.822 1.774 1.729 1.686 1.647 1.609 1.572 1.536 1.501 1.465 1.429 1.392 1.354 1.314 1.271 1.225 1.177 1.124 1.096 
1.902 1.874 1.822 1.774 1.729 1.686 1.647 1.609 1.572 1.536 1.501 1.465 1.429 1.392 1.354 1.314 1.271 1.225 1.177 1.124 1.096 
1.902 1.874 1.822 1.774 1.729 1.686 1.647 1.609 1.572 1.536 1.501 1.465 1.429 1.392 1.354 1.314 1.271 1.225 1.177 1.124 1.096 
1.902 1.874 1.822 1.774 1.729 1.686 1.647 1.609 1.572 1.536 1.501 1.465 1.429 1.392 1.354 1.314 1.271 1.225 1.177 1.124 1.096 
1.902 1.874 1.822 1.774 1.729 1.686 1.647 1.609 1.572 1.536 1.501 1.465 1.429 1.392 1.354 1.314 1.271 1.225 1.177 1.124 1.096 
1.902 1.874 1.822 1.774 1.729 1.686 1.647 1.609 1.572 1.536 1.501 1.465 1.429 1.392 1.354 1.314 1.271 1.225 1.177 1.124 1.096 
1.902 1.874 1.822 1.774 1.729 1.686 1.647 1.609 1.572 1.536 1.501 1.465 1.429 1.392 1.354 1.314 1.271 1.225 1.177 1.124 1.096 
1.902 1.874 1.822 1.774 1.729 1.686 1.647 1.609 1.572 1.536 1.501 1.465 1.429 1.392 1.354 1.314 1.271 1.225 1.177 1.124 1.096 
1.902 1.874 1.822 1.774 1.729 1.686 1.647 1.609 1.572 1.536 1.501 1.465 1.429 1.392 1.354 1.314 1.271 1.225 1.177 1.124 1.096 
1.902 1.874 1.822 1.774 1.729 1.686 1.647 1.609 1.572 1.536 1.501 1.465 1.429 1.392 1.354 1.314 1.271 1.225 1.177 1.124 1.096 
1.902 1.874 1.822 1.774 1.729 1.686 1.647 1.609 1.572 1.536 1.501 1.465 1.429 1.392 1.354 1.314 1.271 1.225 1.177 1.124 1.096 
1.902 1.874 1.822 1.774 1.729 1.686 1.647 1.609 1.572 1.536 1.501 1.465 1.429 1.392 1.354 1.314 1.271 1.225 1.177 1.124 1.096 
1.902 1.874 1.822 1.774 1.729 1.686 1.647 1.609 1.572 1.536 1.501 1.465 1.429 1.392 1.354 1.314 1.271 1.225 1.177 1.124 1.096 
1.902 1.874 1.822 1.774 1.729 1.686 1.647 1.609 1.572 1.536 1.501 1.465 1.429 1.392 1.354 1.314 1.271 1.225 1.177 1.124 1.096 
1.902 1.874 1.822 1.774 1.729 1.686 1.647 1.609 1.572 1.536 1.501 1.465 1.429 1.392 1.354 1.314 1.271 1.225 1.177 1.124 1.096 
1.902 1.874 1.822 1.774 1.729 1.686 1.647 1.609 1.572 1.536 1.501 1.465 1.429 1.392 1.354 1.314 1.271 1.225 1.177 1.124 1.096 
1.902 1.874 1.822 1.774 1.729 1.686 1.647 1.609 1.572 1.536 1.501 1.465 1.429 1.392 1.354 1.314 1.271 1.225 1.177 1.124 1.096 
1.902 1.874 1.822 1.774 1.729 1.686 1.647 1.609 1.572 1.536 1.501 1.465 1.429 1.392 1.354 1.314 1.271 1.225 1.177 1.124 1.096 
1.902 1.874 1.822 1.774 1.729 1.686 1.647 1.609 1.572 1.536 1.501 1.465 1.429 1.392 1.354 1.314 1.271 1.225 1.177 1.124 1.096 
1.902 1.874 1.822 1.774 1.729 1.686 1.647 1.609 1.572 1.536 1.501 1.465 1.429 1.392 1.354 1.314 1.271 1.225 1.177 1.124 1.096 
1.902 1.874 1.822 1.774 1.729 1.686 1.647 1.609 1.572 1.536 1.501 1.465 1.429 1.392 1.354 1.314 1.271 1.225 1.177 1.124 1.096 
1.902 1.874 1.822 1.774 1.729 1.686 1.647 1.609 1.572 1.536 1.501 1.465 1.429 1.392 1.354 1.314 1.271 1.225 1.177 1.124 1.096 
</DataArray>
<DataArray Name="ne" NumberOfComponents="1" format="ascii" type="Float64">
0.8835 0.889 0.901 0.9056 0.9145 0.9173 0.9235 0.9246 0.9287 0.9281 0.9302 0.9278 0.9281 0.924 0.9225 0.9163 0.9131 0.9047 0.8998 0.8885 0.8836 
0.8835 0.889 0.901 0.9056 0.9145 0.9173 0.9235 0.9246 0.9287 0.9281 0.9302 0.9278 0.9281 0.924 0.9225 0.9163 0.9131 0.9047 0.8998 0.8885 0.8836 
0.8835 0.889 0.901 0.9056 0.9145 0.9173 0.9235 0.9246 0.9287 0.9281 0.9302 0.9278 0.9281 0.924 0.9225 0.9163 0.9131 0.9047 0.8998 0.8885 0.8836 
0.8835 0.889 0.901 0.9056 0.9145 0.9173 0.9235 0.9246 0.9287 0.9281 0.9302 0.9278 0.9281 0.924 0.9225 0.9163 0.9131 0.9047 0.8998 0.8885 0.8836 
0.8835 0.889 0.901 0.9056 0.9145 0.9173 0.9235 0.9246 0.9287 0.9281 0.9302 0.9278 0.9281 0.924 0.9225 0.9163 0.9131 0.9047 0.8998 0.8885 0.8836 
0.8835 0.889 0.901 0.9056 0.9145 0.9173 0.9235 0.9246 0.9287 0.9281 0.9302 0.9278 0.9281 0.924 0.9225 0.9163 0.9131 0.9047 0.8998 0.8885 0.8836 
0.8835 0.889 0.901 0.9056 0.9145 0.9173 0.9235 0.9246 0.9287 0.9281 0.9302 0.9278 0.9281 0.924 0.9225 0.9163 0.9131 0.9047 0.8998 0.8885 0.8836 
0.8835 0.889 0.901 0.9056 0.9145 0.9173 0.9235 0.9246 0.9287 0.9281 0.9302 0.9278 0.9281 0.924 0.9225 0.9163 0.9131 0.9047 0.8998 0.8885 0.8836 
0.8835 0.889 0.901 0.9056 0.9145 0.9173 0.9235 0.9246 0.9287 0.9281 0.9302 0.9278 0.9281 0.924 0.9225 0.9163 0.9131 0.9047 0.8998 0.8885 0.8836 
0.8835 0.889 0.901 0.9056 0.9145 0.9173 0.9235 0.9246 0.9287 0.9281 0.9302 0.9278 0.9281 0.924 0.9225 0.9163 0.9131 0.9047 0.8998 0.8885 0.8836 
0.8835 0.889 0.901 0.9056 0.9145 0.9173 0.9235 0.9246 0.9287 0.9281 0.9302 0.9278 0.9281 0.924 0.9225 0.9163 0.9131 0.9047 0.8998 0.8885 0.8836 
0.8835 0.889 0.901 0.9056 0.9145 0.9173 0.9235 0.9246 0.9287 0.9281 0.9302 0.9278 0.9281 0.924 0.9225 0.9163 0.9131 0.9047 0.8998 0.8885 0.8836 
0.8835 0.889 0.901 0.9056 0.9145 0.9173 0.9235 0.9246 0.9287 0.9281 0.9302 0.9278 0.9281 0.924 0.9225 0.9163 0.9131 0.9047 0.8998 0.8885 0.8836 
0.8835 0.889 0.901 0.9056 0.9145 0.9173 0.9235 0.9246 0.9287 0.9281 0.9302 0.9278 0.9281 0.924 0.9225 0.9163 0.9131 0.9047 0.8998 0.8885 0.8836 
0.8835 0.889 0.901 0.9056 0.9145 0.9173 0.9235 0.9246 0.9287 0.9281 0.9302 0.9278 0.9281 0.924 0.9225 0.9163 0.9131 0.9047 0.8998 0.8885 0.8836 
0.8835 0.889 0.901 0.9056 0.9145 0.9173 0.9235 0.9246 0.9287 0.9281 0.9302 0.9278 0.9281 0.924 0.9225 0.9163 0.9131 0.9047 0.8998 0.8885 0.8836 
0.8835 0.889 0.901 0.9056 0.9145 0.9173 0.9235 0.9246 0.9287 0.9281 0.9302 0.9278 0.9281 0.924 0.9225 0.9163 0.9131 0.9047 0.8998 0.8885 0.8836 
0.8835 0.889 0.901 0.9056 0.9145 0.9173 0.9235 0.9246 0.9287 0.9281 0.9302 0.9278 0.9281 0.924 0.9225 0.9163 0.9131 0.9047 0.8998 0.8885 0.8836 
0.8835 0.889 0.901 0.9056 0.9145 0.9173 0.9235 0.9246 0.9287 0.9281 0.9302 0.9278 0.9281 0.924 0.9225 0.9163 0.9131 0.9047 0.8998 0.8885 0.8836 
0.8835 0.889 0.901 0.9056 0.9145 0.9173 0.9235 0.9246 0.9287 0.9281 0.9302 0.9278 0.9281 0.924 0.9225 0.9163 0.9131 0.9047 0.8998 0.8885 0.8836 
0.8835 0.889 0.901 0.9056 0.9145 0.9173 0.9235 0.9246 0.9287 0.9281 0.9302 0.9278 0.9281 0.924 0.9225 0.9163 0.9131 0.9047 0.8998 0.8885 0.8836 
0.8835 0.889 0.901 0.9056 0.9145 0.9173 0.9235 0.9246 0.9287 0.9281 0.9302 0.9278 0.9281 0.924 0.9225 0.9163 0.9131 0.9047 0.8998 0.8885 0.8836 
0.8835 0.889 0.901 0.9056 0.9145 0.9173 0.9235 0.9246 0.9287 0.9281 0.9302 0.9278 0.9281 0.924 0.9225 0.9163 0.9131 0.9047 0.8998 0.8885 0.8836 
0.8835 0.889 0.901 0.9056 0.9145 0.9173 0.9235 0.9246 0.9287 0.9281 0.9302 0.9278 0.9281 0.924 0.9225 0.9163 0.9131 0.9047 0.8998 0.8885 0.8836 
0.8835 0.889 0.901 0.9056 0.9145 0.9173 0.9235 0.9246 0.9287 0.9281 0.9302 0.9278 0.9281 0.924 0.9225 0.9163 0.9131 0.9047 0.8998 0.8885 0.8836 
0.8835 0.889 0.901 0.9056 0.9145 0.9173 0.9235 0.9246 0.9287 0.9281 0.9302 0.9278 0.9281 0.924 0.9225 0.9163 0.9131 0.9047 0.8998 0.8885 0.8836 
0.8835 0.889 0.901 0.9056 0.9145 0.9173 0.9235 0.9246 0.9287 0.9281 0.9302 0.9278 0.9281 0.924 0.9225 0.9163 0.9131 0.9047 0.8998 0.8885 0.8836 
0.8835 0.889 0.901 0.9056 0.9145 0.9173 0.9235 0.9246 0.9287 0.9281 0.9302 0.9278 0.9281 0.924 0.9225 0.9163 0.9131 0.9047 0.8998 0.8885 0.8836 
0.8835 0.889 0.901 0.9056 0.9145 0.9173 0.9235 0.9246 0.9287 0.9281 0.9302 0.9278 0.9281 0.924 0.9225 0.9163 0.9131 0.9047 0.8998 0.8885 0.8836 
0.8835 0.889 0.901 0.9056 0.9145 0.9173 0.9235 0.9246 0.9287 0.9281 0.9302 0.9278 0.9281 0.924 0.9225 0.9163 0.9131 0.9047 0.8998 0.8885 0.8836 
0.8835 0.889 0.901 0.9056 0.9145 0.9173 0.9235 0.9246 0.9287 0.9281 0.9302 0.9278 0.9281 0.924 0.9225 0.9163 0.9131 0.9047 0.8998 0.8885 0.8836 
0.8835 0.889 0.901 0.9056 0.9145 0.9173 0.9235 0.9246 0.9287 0.9281 0.9302 0.9278 0.9281 0.924 0.9225 0.9163 0.9131 0.9047 0.8998 0.8885 0.8836 
0.8835 0.889 0.901 0.9056 0.9145 0.9173 0.9235 0.9246 0.9287 0.9281 0.9302 0.9278 0.9281 0.924 0.9225 0.9163 0.9131 0.9047 0.8998 0.8885 0.8836 
0.8835 0.889 0.901 0.9056 0.9145 0.9173 0.9235 0.9246 0.9287 0.9281 0.9302 0.9278 0.9281 0.924 0.9225 0.9163 0.9131 0.9047 0.8998 0.8885 0.8836 
0.8835 0.889 0.901 0.9056 0.9145 0.9173 0.9235 0.9246 0.9287 0.9281 0.9302 0.9278 0.9281 0.924 0.9225 0.9163 0.9131 0.9047 0.8998 0.8885 0.8836 
0.8835 0.889 0.901 0.9056 0.9145 0.9173 0.9235 0.9246 0.9287 0.9281 0.9302 0.9278 0.9281 0.924 0.9225 0.9163 0.9131 0.9047 0.8998 0.8885 0.8836 
0.8835 0.889 0.901 0.9056 0.9145 0.9173 0.9235 0.9246 0.9287 0.9281 0.9302 0.9278 0.9281 0.924 0.9225 0.9163 0.9131 0.9047 0.8998 0.8885 0.8836 
0.8835 0.889 0.901 0.9056 0.9145 0.9173 0.9235 0.9246 0.9287 0.9281 0.9302 0.9278 0.9281 0.924 0.9225 0.9163 0.9131 0.9047 0.8998 0.8885 0.8836 
0.8835 0.889 0.901 0.9056 0.9145 0.9173 0.9235 0.9246 0.9287 0.9281 0.9302 0.9278 0.9281 0.924 0.9225 0.9163 0.9131 0.9047 0.8998 0.8885 0.8836 
0.8835 0.889 0.901 0.9056 0.9145 0.9173 0.9235 0.9246 0.9287 0.9281 0.9302 0.9278 0.9281 0.924 0.9225 0.9163 0.9131 0.9047 0.8998 0.8885 0.8836 
0.8835 0.889 0.901 0.9056 0.9145 0.9173 0.9235 0.9246 0.9287 0.9281 0.9302 0.9278 0.9281 0.924 0.9225 0.9163 0.9131 0.9047 0.8998 0.8885 0.8836 
</DataArray>
</PointData>
</Piece>
</ImageData>
</VTKFile>
