<VTKFile type="ImageData">
<ImageData Origin="0 -10 0" Spacing="0.5 0.5 1" WholeExtent="0 20 0 40 0 0">
<Piece Extent="0 20 0 40 0 0">
<PointData>
<DataArray Name="f" NumberOfComponents="1" format="ascii" type="Float64">
1.827e-09 7.071e-10 2.214e-10 5.472e-11 1.036e-11 1.451e-12 1.432e-13 9.334e-15 3.647e-16 7.265e-18 5.146e-20 0 0 0 0 0 0 0 0 0 0 
4.151e-08 2.155e-08 9.383e-09 3.356e-09 9.647e-10 2.173e-10 3.718e-11 4.649e-12 4.037e-13 2.274e-14 7.511e-16 1.227e-17 6.765e-20 0 0 0 0 0 0 0 0 
5.606e-07 3.662e-07 2.075e-07 9.988e-08 4.008e-08 1.314e-08 3.442e-09 7.006e-10 1.072e-10 1.184e-11 8.958e-13 4.326e-14 1.202e-15 1.598e-17 6.652e-20 0 0 0 0 0 0 
5.001e-06 3.867e-06 2.686e-06 1.637e-06 8.59e-07 3.81e-07 1.402e-07 4.193e-08 9.94e-09 1.816e-09 2.471e-10 2.405e-11 1.59e-12 6.652e-14 1.577e-15 1.726e-17 5.195e-20 0 0 0 0 
3.242e-05 2.8e-05 2.253e-05 1.644e-05 1.065e-05 6.02e-06 2.915e-06 1.188e-06 3.998e-07 1.086e-07 2.327e-08 3.822e-09 4.664e-10 4.071e-11 2.421e-12 9.135e-14 1.947e-15 1.842e-17 3.693e-20 0 0 
0.000165 0.000152 0.0001344 0.0001113 8.436e-05 5.732e-05 3.43e-05 1.775e-05 7.806e-06 2.859e-06 8.542e-07 2.033e-07 3.756e-08 5.229e-09 5.294e-10 3.72e-11 1.696e-12 4.499e-14 5.552e-16 1.568e-18 0 
0.0006934 0.0006596 0.0006166 0.0005545 0.0004689 0.0003649 0.0002562 0.0001592 8.592e-05 3.948e-05 1.512e-05 4.713e-06 1.165e-06 2.216e-07 3.126e-08 3.119e-09 2.053e-10 7.936e-12 1.425e-13 5.784e-16 0 
0.002463 0.002378 0.002289 0.002163 0.001969 0.00169 0.00134 0.0009623 0.0006128 0.0003389 0.0001592 6.194e-05 1.943e-05 4.766e-06 8.794e-07 1.162e-07 1.024e-08 5.354e-10 1.312e-11 7.545e-14 0 
0.007487 0.007275 0.007099 0.006894 0.006565 0.006027 0.005232 0.004206 0.003065 0.001979 0.001106 0.0005216 0.0002015 6.177e-05 1.444e-05 2.448e-06 2.8e-07 1.922e-08 6.292e-10 5.121e-12 0 
0.0196 0.01911 0.01875 0.01845 0.01802 0.01725 0.01594 0.01396 0.01133 0.008326 0.005408 0.00302 0.001407 0.0005284 0.0001536 3.283e-05 4.795e-06 4.266e-07 1.851e-08 2.134e-10 0 
0.04434 0.04331 0.04262 0.04217 0.04169 0.04087 0.03929 0.03651 0.03216 0.02627 0.01939 0.01258 0.006945 0.00315 0.001125 0.0003 5.555e-05 6.374e-06 3.659e-07 5.985e-09 0 
0.08685 0.08503 0.08382 0.08313 0.08262 0.08192 0.08051 0.07767 0.07249 0.06419 0.05266 0.0389 0.02505 0.01355 0.00589 0.001948 0.0004559 6.745e-05 5.138e-06 1.195e-07 0 
0.1473 0.1447 0.1429 0.142 0.1414 0.1409 0.1399 0.1378 0.1334 0.125 0.1113 0.09164 0.06761 0.04302 0.02256 0.00922 0.002725 0.0005217 5.307e-05 1.763e-06 0 
0.2162 0.2135 0.2115 0.2104 0.2098 0.2094 0.2089 0.2077 0.205 0.1991 0.1877 0.1681 0.1391 0.1025 0.06415 0.03224 0.01205 0.003003 0.0004117 1.97e-05 0 
0.2725 0.2726 0.2714 0.2706 0.2702 0.2699 0.2697 0.2692 0.2681 0.2653 0.2589 0.2459 0.2224 0.1855 0.1366 0.08376 0.03962 0.01294 0.002422 0.0001689 0 
0.2899 0.2991 0.3014 0.3017 0.3018 0.3017 0.3017 0.3016 0.3014 0.3006 0.2986 0.2935 0.2821 0.259 0.2192 0.1618 0.09655 0.04163 0.0108 0.001118 0 
0.2497 0.2769 0.2874 0.2908 0.2919 0.2922 0.2924 0.2925 0.2926 0.2928 0.293 0.2928 0.291 0.2847 0.2679 0.2322 0.1727 0.09866 0.03608 0.005687 0 
0.1616 0.2073 0.2308 0.24 0.2434 0.2445 0.245 0.2452 0.2455 0.2459 0.2467 0.2482 0.2504 0.2531 0.2545 0.2485 0.2238 0.1682 0.08824 0.02196 0 
0.06923 0.1162 0.1491 0.1657 0.1729 0.1758 0.1768 0.1772 0.1775 0.178 0.1788 0.1803 0.1829 0.1873 0.1939 0.2026 0.2091 0.1997 0.1512 0.06264 0 
0.01515 0.0431 0.07149 0.09089 0.1016 0.1068 0.109 0.1098 0.1103 0.1107 0.1113 0.1124 0.1143 0.1175 0.1229 0.1314 0.1444 0.1611 0.1691 0.125 0 
0.0005059 0.008825 0.02264 0.03628 0.04648 0.05277 0.05611 0.05769 0.05841 0.05882 0.05924 0.0599 0.06103 0.06293 0.06606 0.07111 0.07916 0.09205 0.1131 0.1492 0.176 
0 0.001033 0.004334 0.009545 0.01515 0.01981 0.02302 0.02493 0.02594 0.02647 0.02681 0.0272 0.02778 0.02873 0.03029 0.03281 0.03683 0.04331 0.05401 0.07258 0.09116 
0 9.249e-05 0.0005629 0.001685 0.00341 0.005372 0.007148 0.008489 0.009365 0.009881 0.01019 0.01042 0.01069 0.01109 0.01173 0.01276 0.0144 0.01704 0.0214 0.02897 0.03779 
0 6.186e-06 5.133e-05 0.0002031 0.0005249 0.001017 0.001601 0.002168 0.002631 0.002961 0.003176 0.003322 0.003446 0.003596 0.003817 0.004163 0.004711 0.00559 0.007036 0.009522 0.01268 
0 3.009e-07 3.282e-06 1.679e-05 5.497e-05 0.0001318 0.0002504 0.0003973 0.0005484 0.0006812 0.000784 0.0008583 0.0009147 0.0009682 0.001035 0.001132 0.001283 0.001523 0.001914 0.002578 0.003464 
0 1.03e-08 1.445e-07 9.407e-07 3.872e-06 1.15e-05 2.661e-05 5.039e-05 8.119e-05 0.0001148 0.0001465 0.0001731 0.0001943 0.0002123 0.0002308 0.0002545 0.000289 0.0003427 0.000429 0.0005734 0.0007718 
0 2.389e-10 4.251e-09 3.489e-08 1.796e-07 6.61e-07 1.872e-06 4.285e-06 8.207e-06 1.354e-05 1.973e-05 2.599e-05 3.173e-05 3.677e-05 4.147e-05 4.662e-05 5.337e-05 6.33e-05 7.887e-05 0.0001044 0.0001401 
0 3.574e-12 8.015e-11 8.257e-10 5.308e-09 2.423e-08 8.45e-08 2.358e-07 5.448e-07 1.069e-06 1.824e-06 2.76e-06 3.785e-06 4.809e-06 5.796e-06 6.798e-06 7.956e-06 9.505e-06 1.181e-05 1.549e-05 2.067e-05 
0 3.242e-14 9.157e-13 1.185e-11 9.531e-11 5.422e-10 2.343e-09 8.052e-09 2.272e-08 5.397e-08 1.101e-07 1.964e-07 3.121e-07 4.498e-07 6.003e-07 7.591e-07 9.324e-07 1.142e-06 1.428e-06 1.862e-06 2.467e-06 
0 1.641e-16 5.866e-15 9.589e-14 9.722e-13 6.948e-12 3.758e-11 1.609e-10 5.627e-10 1.645e-09 4.094e-09 8.822e-09 1.671e-08 2.824e-08 4.333e-08 6.143e-08 8.224e-08 1.065e-07 1.369e-07 1.795e-07 2.371e-07 
0 4.118e-19 1.886e-17 3.943e-16 5.104e-15 4.647e-14 3.194e-13 1.732e-12 7.638e-12 2.802e-11 8.704e-11 2.322e-10 5.395e-10 1.105e-09 2.023e-09 3.355e-09 5.119e-09 7.325e-09 1.006e-08 1.361e-08 1.817e-08 
0 0 2.568e-20 7.013e-19 1.184e-17 1.405e-16 1.255e-15 8.825e-15 5.033e-14 2.379e-13 9.481e-13 3.228e-12 9.501e-12 2.445e-11 5.556e-11 1.127e-10 2.06e-10 3.439e-10 5.32e-10 7.791e-10 1.086e-09 
0 0 0 0 0 1.508e-19 1.815e-18 1.718e-17 1.315e-16 8.323e-16 4.426e-15 2.002e-14 7.795e-14 2.635e-13 7.803e-13 2.039e-12 4.731e-12 9.811e-12 1.832e-11 3.113e-11 4.815e-11 
0 0 0 0 0 0 0 0 9.325e-20 8.406e-19 6.351e-18 4.07e-17 2.236e-16 1.061e-15 4.386e-15 1.586e-14 5.037e-14 1.408e-13 3.463e-13 7.511e-13 1.42e-12 
0 0 0 0 0 0 0 0 0 0 0 1.357e-20 1.183e-19 8.878e-19 5.773e-18 3.264e-17 1.607e-16 6.884e-16 2.553e-15 8.148e-15 2.188e-14 
0 0 0 0 0 0 0 0 0 0 0 0 0 0 0 0 3.932e-20 3.469e-19 2.616e-18 1.666e-17 8.684e-17 
0 0 0 0 0 0 0 0 0 0 0 0 0 0 0 0 0 0 0 0 0 
0 0 0 0 0 0 0 0 0 0 0 0 0 0 0 0 0 0 0 0 0 
0 0 0 0 0 0 0 0 0 0 0 0 0 0 0 0 0 0 0 0 0 
0 0 0 0 0 0 0 0 0 0 0 0 0 0 0 0 0 0 0 0 0 
0 0 0 0 0 0 0 0 0 0 0 0 0 0 0 0 0 0 0 0 0 
</DataArray>
<DataArray Name="E" NumberOfComponents="1" format="ascii" type="Float64">
1.962 1.928 1.875 1.845 1.828 1.819 1.813 1.807 1.8 1.789 1.769 1.736 1.683 1.604 1.492 1.338 1.139 0.8905 0.5912 0.2423 0.05581 
1.962 1.928 1.875 1.845 1.828 1.819 1.813 1.807 1.8 1.789 1.769 1.736 1.683 1.604 1.492 1.338 1.139 0.8905 0.5912 0.2423 0.05581 
1.962 1.928 1.875 1.845 1.828 1.819 1.813 1.807 1.8 1.789 1.769 1.736 1.683 1.604 1.492 1.338 1.139 0.8905 0.5912 0.2423 0.05581 
1.962 1.928 1.875 1.845 1.828 1.819 1.813 1.807 1.8 1.789 1.769 1.736 1.683 1.604 1.492 1.338 1.139 0.8905 0.5912 0.2423 0.05581 
1.962 1.928 1.875 1.845 1.828 1.819 1.813 1.807 1.8 1.789 1.769 1.736 1.683 1.604 1.492 1.338 1.139 0.8905 0.5912 0.2423 0.05581 
1.962 1.928 1.875 1.845 1.828 1.819 1.813 1.807 1.8 1.789 1.769 1.736 1.683 1.604 1.492 1.338 1.139 0.8905 0.5912 0.2423 0.05581 
1.962 1.928 1.875 1.845 1.828 1.819 1.813 1.807 1.8 1.789 1.769 1.736 1.683 1.604 1.492 1.338 1.139 0.8905 0.5912 0.2423 0.05581 
1.962 1.928 1.875 1.845 1.828 1.819 1.813 1.807 1.8 1.789 1.769 1.736 1.683 1.604 1.492 1.338 1.139 0.8905 0.5912 0.2423 0.05581 
1.962 1.928 1.875 1.845 1.828 1.819 1.813 1.807 1.8 1.789 1.769 1.736 1.683 1.604 1.492 1.338 1.139 0.8905 0.5912 0.2423 0.05581 
1.962 1.928 1.875 1.845 1.828 1.819 1.813 1.807 1.8 1.789 1.769 1.736 1.683 1.604 1.492 1.338 1.139 0.8905 0.5912 0.2423 0.05581 
1.962 1.928 1.875 1.845 1.828 1.819 1.813 1.807 1.8 1.789 1.769 1.736 1.683 1.604 1.492 1.338 1.139 0.8905 0.5912 0.2423 0.05581 
1.962 1.928 1.875 1.845 1.828 1.819 1.813 1.807 1.8 1.789 1.769 1.736 1.683 1.604 1.492 1.338 1.139 0.8905 0.5912 0.2423 0.05581 
1.962 1.928 1.875 1.845 1.828 1.819 1.813 1.807 1.8 1.789 1.769 1.736 1.683 1.604 1.492 1.338 1.139 0.8905 0.5912 0.2423 0.05581 
1.962 1.928 1.875 1.845 1.828 1.819 1.813 1.807 1.8 1.789 1.769 1.736 1.683 1.604 1.492 1.338 1.139 0.8905 0.5912 0.2423 0.05581 
1.962 1.928 1.875 1.845 1.828 1.819 1.813 1.807 1.8 1.789 1.769 1.736 1.683 1.604 1.492 1.338 1.139 0.8905 0.5912 0.2423 0.05581 
1.962 1.928 1.875 1.845 1.828 1.819 1.813 1.807 1.8 1.789 1.769 1.736 1.683 1.604 1.492 1.338 1.139 0.8905 0.5912 0.2423 0.05581 
1.962 1.928 1.875 1.845 1.828 1.819 1.813 1.807 1.8 1.789 1.769 1.736 1.683 1.604 1.492 1.338 1.139 0.8905 0.5912 0.2423 0.05581 
1.962 1.928 1.875 1.845 1.828 1.819 1.813 1.807 1.8 1.789 1.769 1.736 1.683 1.604 1.492 1.338 1.139 0.8905 0.5912 0.2423 0.05581 
1.962 1.928 1.875 1.845 1.828 1.819 1.813 1.807 1.8 1.789 1.769 1.736 1.683 1.604 1.492 1.338 1.139 0.8905 0.5912 0.2423 0.05581 
1.962 1.928 1.875 1.845 1.828 1.819 1.813 1.807 1.8 1.789 1.769 1.736 1.683 1.604 1.492 1.338 1.139 0.8905 0.5912 0.2423 0.05581 
1.962 1.928 1.875 1.845 1.828 1.819 1.813 1.807 1.8 1.789 1.769 1.736 1.683 1.604 1.492 1.338 1.139 0.8905 0.5912 0.2423 0.05581 
1.962 1.928 1.875 1.845 1.828 1.819 1.813 1.807 1.8 1.789 1.769 1.736 1.683 1.604 1.492 1.338 1.139 0.8905 0.5912 0.2423 0.05581 
1.962 1.928 1.875 1.845 1.828 1.819 1.813 1.807 1.8 1.789 1.769 1.736 1.683 1.604 1.492 1.338 1.139 0.8905 0.5912 0.2423 0.05581 
1.962 1.928 1.875 1.845 1.828 1.819 1.813 1.807 1.8 1.789 1.769 1.736 1.683 1.604 1.492 1.338 1.139 0.8905 0.5912 0.2423 0.05581 
1.962 1.928 1.875 1.845 1.828 1.819 1.813 1.807 1.8 1.789 1.769 1.736 1.683 1.604 1.492 1.338 1.139 0.8905 0.5912 0.2423 0.05581 
1.962 1.928 1.875 1.845 1.828 1.819 1.813 1.807 1.8 1.789 1.769 1.736 1.683 1.604 1.492 1.338 1.139 0.8905 0.5912 0.2423 0.05581 
1.962 1.928 1.875 1.845 1.828 1.819 1.813 1.807 1.8 1.789 1.769 1.736 1.683 1.604 1.492 1.338 1.139 0.8905 0.5912 0.2423 0.05581 
1.962 1.928 1.875 1.845 1.828 1.819 1.813 1.807 1.8 1.789 1.769 1.736 1.683 1.604 1.492 1.338 1.139 0.8905 0.5912 0.2423 0.05581 
1.962 1.928 1.875 1.845 1.828 1.819 1.813 1.807 1.8 1.789 1.769 1.736 1.683 1.604 1.492 1.338 1.139 0.8905 0.5912 0.2423 0.05581 
1.962 1.928 1.875 1.845 1.828 1.819 1.813 1.807 1.8 1.789 1.769 1.736 1.683 1.604 1.492 1.338 1.139 0.8905 0.5912 0.2423 0.05581 
1.962 1.928 1.875 1.845 1.828 1.819 1.813 1.807 1.8 1.789 1.769 1.736 1.683 1.604 1.492 1.338 1.139 0.8905 0.5912 0.2423 0.05581 
1.962 1.928 1.875 1.845 1.828 1.819 1.813 1.807 1.8 1.789 1.769 1.736 1.683 1.604 1.492 1.338 1.139 0.8905 0.5912 0.2423 0.05581 
1.962 1.928 1.875 1.845 1.828 1.819 1.813 1.807 1.8 1.789 1.769 1.736 1.683 1.604 1.492 1.338 1.139 0.8905 0.5912 0.2423 0.05581 
1.962 1.928 1.875 1.845 1.828 1.819 1.813 1.807 1.8 1.789 1.769 1.736 1.683 1.604 1.492 1.338 1.139 0.8905 0.5912 0.2423 0.05581 
1.962 1.928 1.875 1.845 1.828 1.819 1.813 1.807 1.8 1.789 1.769 1.736 1.683 1.604 1.492 1.338 1.139 0.8905 0.5912 0.2423 0.05581 
1.962 1.928 1.875 1.845 1.828 1.819 1.813 1.807 1.8 1.789 1.769 1.736 1.683 1.604 1.492 1.338 1.139 0.8905 0.5912 0.2423 0.05581 
1.962 1.928 1.875 1.845 1.828 1.819 1.813 1.807 1.8 1.789 1.769 1.736 1.683 1.604 1.492 1.338 1.139 0.8905 0.5912 0.2423 0.05581 
1.962 1.928 1.875 1.845 1.828 1.819 1.813 1.807 1.8 1.789 1.769 1.736 1.683 1.604 1.492 1.338 1.139 0.8905 0.5912 0.2423 0.05581 
1.962 1.928 1.875 1.845 1.828 1.819 1.813 1.807 1.8 1.789 1.769 1.736 1.683 1.604 1.492 1.338 1.139 0.8905 0.5912 0.2423 0.05581 
1.962 1.928 1.875 1.845 1.828 1.819 1.813 1.807 1.8 1.789 1.769 1.736 1.683 1.604 1.492 1.338 1.139 0.8905 0.5912 0.2423 0.05581 
1.962 1.928 1.875 1.845 1.828 1.819 1.813 1.807 1.8 1.789 1.769 1.736 1.683 1.604 1.492 1.338 1.139 0.8905 0.5912 0.2423 0.05581 
</DataArray>
<DataArray Name="ne" NumberOfComponents="1" format="ascii" type="Float64">
0.7798 0.8655 0.9227 0.9566 0.9758 0.9859 0.9899 0.989 0.983 0.9706 0.9496 0.9177 0.8723 0.8121 0.7373 0.6498 0.5533 0.4521 0.3506 0.2539 0.1638 
0.7798 0.8655 0.9227 0.9566 0.9758 0.9859 0.9899 0.989 0.983 0.9706 0.9496 0.9177 0.8723 0.8121 0.7373 0.6498 0.5533 0.4521 0.3506 0.2539 0.1638 
0.7798 0.8655 0.9227 0.9566 0.9758 0.9859 0.9899 0.989 0.983 0.9706 0.9496 0.9177 0.8723 0.8121 0.7373 0.6498 0.5533 0.4521 0.3506 0.2539 0.1638 
0.7798 0.8655 0.9227 0.9566 0.9758 0.9859 0.9899 0.989 0.983 0.9706 0.9496 0.9177 0.8723 0.8121 0.7373 0.6498 0.5533 0.4521 0.3506 0.2539 0.1638 
0.7798 0.8655 0.9227 0.9566 0.9758 0.9859 0.9899 0.989 0.983 0.9706 0.9496 0.9177 0.8723 0.8121 0.7373 0.6498 0.5533 0.4521 0.3506 0.2539 0.1638 
0.7798 0.8655 0.9227 0.9566 0.9758 0.9859 0.9899 0.989 0.983 0.9706 0.9496 0.9177 0.8723 0.8121 0.7373 0.6498 0.5533 0.4521 0.3506 0.2539 0.1638 
0.7798 0.8655 0.9227 0.9566 0.9758 0.9859 0.9899 0.989 0.983 0.9706 0.9496 0.9177 0.8723 0.8121 0.7373 0.6498 0.5533 0.4521 0.3506 0.2539 0.1638 
0.7798 0.8655 0.9227 0.9566 0.9758 0.9859 0.9899 0.989 0.983 0.9706 0.9496 0.9177 0.8723 0.8121 0.7373 0.6498 0.5533 0.4521 0.3506 0.2539 0.1638 
0.7798 0.8655 0.9227 0.9566 0.9758 0.9859 0.9899 0.989 0.983 0.9706 0.9496 0.9177 0.8723 0.8121 0.7373 0.6498 0.5533 0.4521 0.3506 0.2539 0.1638 
0.7798 0.8655 0.9227 0.9566 0.9758 0.9859 0.9899 0.989 0.983 0.9706 0.9496 0.9177 0.8723 0.8121 0.7373 0.6498 0.5533 0.4521 0.3506 0.2539 0.1638 
0.7798 0.8655 0.9227 0.9566 0.9758 0.9859 0.9899 0.989 0.983 0.9706 0.9496 0.9177 0.8723 0.8121 0.7373 0.6498 0.5533 0.4521 0.3506 0.2539 0.1638 
0.7798 0.8655 0.9227 0.9566 0.9758 0.9859 0.9899 0.989 0.983 0.9706 0.9496 0.9177 0.8723 0.8121 0.7373 0.6498 0.5533 0.4521 0.3506 0.2539 0.1638 
0.7798 0.8655 0.9227 0.9566 0.9758 0.9859 0.9899 0.989 0.983 0.9706 0.9496 0.9177 0.8723 0.8121 0.7373 0.6498 0.5533 0.4521 0.3506 0.2539 0.1638 
0.7798 0.8655 0.9227 0.9566 0.9758 0.9859 0.9899 0.989 0.983 0.9706 0.9496 0.9177 0.8723 0.8121 0.7373 0.6498 0.5533 0.4521 0.3506 0.2539 0.1638 
0.7798 0.8655 0.9227 0.9566 0.9758 0.9859 0.9899 0.989 0.983 0.9706 0.9496 0.9177 0.8723 0.8121 0.7373 0.6498 0.5533 0.4521 0.3506 0.2539 0.1638 
0.7798 0.8655 0.9227 0.9566 0.9758 0.9859 0.9899 0.989 0.983 0.9706 0.9496 0.9177 0.8723 0.8121 0.7373 0.6498 0.5533 0.4521 0.3506 0.2539 0.1638 
0.7798 0.8655 0.9227 0.9566 0.9758 0.9859 0.9899 0.989 0.983 0.9706 0.9496 0.9177 0.8723 0.8121 0.7373 0.6498 0.5533 0.4521 0.3506 0.2539 0.1638 
0.7798 0.8655 0.9227 0.9566 0.9758 0.9859 0.9899 0.989 0.983 0.9706 0.9496 0.9177 0.8723 0.8121 0.7373 0.6498 0.5533 0.4521 0.3506 0.2539 0.1638 
0.7798 0.8655 0.9227 0.9566 0.9758 0.9859 0.9899 0.989 0.983 0.9706 0.9496 0.9177 0.8723 0.8121 0.7373 0.6498 0.5533 0.4521 0.3506 0.2539 0.1638 
0.7798 0.8655 0.9227 0.9566 0.9758 0.9859 0.9899 0.989 0.983 0.9706 0.9496 0.9177 0.8723 0.8121 0.7373 0.6498 0.5533 0.4521 0.3506 0.2539 0.1638 
0.7798 0.8655 0.9227 0.9566 0.9758 0.9859 0.9899 0.989 0.983 0.9706 0.9496 0.9177 0.8723 0.8121 0.7373 0.6498 0.5533 0.4521 0.3506 0.2539 0.1638 
0.7798 0.8655 0.9227 0.9566 0.9758 0.9859 0.9899 0.989 0.983 0.9706 0.9496 0.9177 0.8723 0.8121 0.7373 0.6498 0.5533 0.4521 0.3506 0.2539 0.1638 
0.7798 0.8655 0.9227 0.9566 0.9758 0.9859 0.9899 0.989 0.983 0.9706 0.9496 0.9177 0.8723 0.8121 0.7373 0.6498 0.5533 0.4521 0.3506 0.2539 0.1638 
0.7798 0.8655 0.9227 0.9566 0.9758 0.9859 0.9899 0.989 0.983 0.9706 0.9496 0.9177 0.8723 0.8121 0.7373 0.6498 0.5533 0.4521 0.3506 0.2539 0.1638 
0.7798 0.8655 0.9227 0.9566 0.9758 0.9859 0.9899 0.989 0.983 0.9706 0.9496 0.9177 0.8723 0.8121 0.7373 0.6498 0.5533 0.4521 0.3506 0.2539 0.1638 
0.7798 0.8655 0.9227 0.9566 0.9758 0.9859 0.9899 0.989 0.983 0.9706 0.9496 0.9177 0.8723 0.8121 0.7373 0.6498 0.5533 0.4521 0.3506 0.2539 0.1638 
0.7798 0.8655 0.9227 0.9566 0.9758 0.9859 0.9899 0.989 0.983 0.9706 0.9496 0.9177 0.8723 0.8121 0.7373 0.6498 0.5533 0.4521 0.3506 0.2539 0.1638 
0.7798 0.8655 0.9227 0.9566 0.9758 0.9859 0.9899 0.989 0.983 0.9706 0.9496 0.9177 0.8723 0.8121 0.7373 0.6498 0.5533 0.4521 0.3506 0.2539 0.1638 
0.7798 0.8655 0.9227 0.9566 0.9758 0.9859 0.9899 0.989 0.983 0.9706 0.9496 0.9177 0.8723 0.8121 0.7373 0.6498 0.5533 0.4521 0.3506 0.2539 0.1638 
0.7798 0.8655 0.9227 0.9566 0.9758 0.9859 0.9899 0.989 0.983 0.9706 0.9496 0.9177 0.8723 0.8121 0.7373 0.6498 0.5533 0.4521 0.3506 0.2539 0.1638 
0.7798 0.8655 0.9227 0.9566 0.9758 0.9859 0.9899 0.989 0.983 0.9706 0.9496 0.9177 0.8723 0.8121 0.7373 0.6498 0.5533 0.4521 0.3506 0.2539 0.1638 
0.7798 0.8655 0.9227 0.9566 0.9758 0.9859 0.9899 0.989 0.983 0.9706 0.9496 0.9177 0.8723 0.8121 0.7373 0.6498 0.5533 0.4521 0.3506 0.2539 0.1638 
0.7798 0.8655 0.9227 0.9566 0.9758 0.9859 0.9899 0.989 0.983 0.9706 0.9496 0.9177 0.8723 0.8121 0.7373 0.6498 0.5533 0.4521 0.3506 0.2539 0.1638 
0.7798 0.8655 0.9227 0.9566 0.9758 0.9859 0.9899 0.989 0.983 0.9706 0.9496 0.9177 0.8723 0.8121 0.7373 0.6498 0.5533 0.4521 0.3506 0.2539 0.1638 
0.7798 0.8655 0.9227 0.9566 0.9758 0.9859 0.9899 0.989 0.983 0.9706 0.9496 0.9177 0.8723 0.8121 0.7373 0.6498 0.5533 0.4521 0.3506 0.2539 0.1638 
0.7798 0.8655 0.9227 0.9566 0.9758 0.9859 0.9899 0.989 0.983 0.9706 0.9496 0.9177 0.8723 0.8121 0.7373 0.6498 0.5533 0.4521 0.3506 0.2539 0.1638 
0.7798 0.8655 0.9227 0.9566 0.9758 0.9859 0.9899 0.989 0.983 0.9706 0.9496 0.9177 0.8723 0.8121 0.7373 0.6498 0.5533 0.4521 0.3506 0.2539 0.1638 
0.7798 0.8655 0.9227 0.9566 0.9758 0.9859 0.9899 0.989 0.983 0.9706 0.9496 0.9177 0.8723 0.8121 0.7373 0.6498 0.5533 0.4521 0.3506 0.2539 0.1638 
0.7798 0.8655 0.9227 0.9566 0.9758 0.9859 0.9899 0.989 0.983 0.9706 0.9496 0.9177 0.8723 0.8121 0.7373 0.6498 0.5533 0.4521 0.3506 0.2539 0.1638 
0.7798 0.8655 0.9227 0.9566 0.9758 0.9859 0.9899 0.989 0.983 0.9706 0.9496 0.9177 0.8723 0.8121 0.7373 0.6498 0.5533 0.4521 0.3506 0.2539 0.1638 
0.7798 0.8655 0.9227 0.9566 0.9758 0.9859 0.9899 0.989 0.983 0.9706 0.9496 0.9177 0.8723 0.8121 0.7373 0.6498 0.5533 0.4521 0.3506 0.2539 0.1638 
</DataArray>
</PointData>
</Piece>
</ImageData>
</VTKFile>
