<VTKFile type="ImageData">
<ImageData Origin="0 -10 0" Spacing="0.5 0.5 1" WholeExtent="0 20 0 40 0 0">
<Piece Extent="0 20 0 40 0 0">
<PointData>
<DataArray Name="f" NumberOfComponents="1" format="ascii" type="Float64">
0.1618 0.1606 0.1598 0.1591 0.1585 0.158 0.1576 0.1573 0.1571 0.1569 0.1568 0.1568 0.1569 0.157 0.1573 0.1577 0.1581 0.1587 0.1595 0.16 0.1618 
0.1875 0.1866 0.186 0.1855 0.185 0.1846 0.1843 0.1841 0.1839 0.1837 0.1837 0.1837 0.1837 0.1838 0.1841 0.1843 0.1847 0.1851 0.1858 0.1861 0.1875 
0.2034 0.2029 0.2027 0.2024 0.2022 0.202 0.2019 0.2017 0.2017 0.2016 0.2016 0.2015 0.2016 0.2016 0.2018 0.2019 0.2021 0.2022 0.2027 0.2027 0.2034 
0.2062 0.2065 0.2067 0.2068 0.2069 0.2069 0.207 0.207 0.207 0.2071 0.207 0.2071 0.207 0.2071 0.2069 0.207 0.2068 0.2069 0.2066 0.2066 0.2062 
0.1953 0.1963 0.197 0.1975 0.1979 0.1982 0.1985 0.1988 0.1989 0.199 0.199 0.1991 0.1989 0.199 0.1985 0.1986 0.1978 0.1979 0.1968 0.1968 0.1953 
0.1726 0.1742 0.1752 0.1761 0.1768 0.1775 0.178 0.1784 0.1786 0.1788 0.1788 0.1789 0.1787 0.1786 0.178 0.1779 0.1769 0.1768 0.1751 0.175 0.1726 
0.1422 0.144 0.1453 0.1465 0.1474 0.1483 0.1489 0.1495 0.1499 0.1501 0.1502 0.1502 0.15 0.1498 0.1492 0.1488 0.1477 0.1472 0.1454 0.145 0.1422 
0.1089 0.1107 0.1121 0.1134 0.1145 0.1154 0.1162 0.1169 0.1173 0.1176 0.1178 0.1178 0.1175 0.1172 0.1167 0.1161 0.115 0.1143 0.1125 0.1118 0.1089 
0.07754 0.07902 0.08036 0.08158 0.08267 0.08362 0.08443 0.08509 0.08559 0.08593 0.0861 0.08611 0.08594 0.08562 0.08509 0.08446 0.08349 0.08264 0.08106 0.0802 0.07754 
0.05117 0.05223 0.05335 0.0544 0.05535 0.05621 0.05696 0.05759 0.05808 0.05844 0.05864 0.05869 0.05858 0.0583 0.05785 0.05727 0.05645 0.0556 0.05429 0.0534 0.05117 
0.03127 0.03189 0.03274 0.03354 0.03428 0.03497 0.03559 0.03612 0.03657 0.03691 0.03713 0.03722 0.03717 0.03699 0.03665 0.03618 0.03553 0.03481 0.03379 0.03298 0.03127 
0.01766 0.01796 0.01852 0.01907 0.01959 0.02007 0.02053 0.02094 0.02129 0.02158 0.02179 0.02191 0.02193 0.02183 0.02162 0.02128 0.02082 0.02027 0.01954 0.01888 0.01766 
0.009219 0.009306 0.009644 0.009974 0.01029 0.0106 0.0109 0.01117 0.01142 0.01164 0.01182 0.01194 0.01199 0.01197 0.01186 0.01166 0.01136 0.01098 0.01049 0.01002 0.009219 
0.004441 0.004427 0.004609 0.004789 0.004966 0.005138 0.005307 0.00547 0.005625 0.005767 0.005892 0.00599 0.006054 0.006072 0.006034 0.005935 0.005769 0.00554 0.005241 0.004929 0.004441 
0.001975 0.001929 0.002018 0.002106 0.002193 0.00228 0.002365 0.002449 0.002532 0.002612 0.002687 0.002753 0.002805 0.002835 0.002837 0.002803 0.002725 0.002604 0.002438 0.00225 0.001975 
0.0008111 0.0007675 0.0008068 0.0008459 0.0008848 0.0009235 0.0009621 0.001001 0.001039 0.001078 0.001116 0.001152 0.001184 0.00121 0.001224 0.001221 0.001194 0.001141 0.001058 0.0009564 0.0008111 
0.0003086 0.0002782 0.0002939 0.0003095 0.0003251 0.0003407 0.0003564 0.0003721 0.000388 0.0004041 0.0004204 0.0004368 0.0004528 0.0004675 0.0004794 0.0004855 0.0004819 0.0004646 0.00043 0.0003802 0.0003086 
0.0001093 9.167e-05 9.719e-05 0.0001028 0.0001085 0.0001141 0.0001198 0.0001256 0.0001315 0.0001374 0.0001435 0.0001497 0.0001561 0.0001626 0.0001688 0.000174 0.0001765 0.000174 0.0001632 0.0001424 0.0001093 
3.627e-05 2.75e-05 2.914e-05 3.091e-05 3.274e-05 3.459e-05 3.646e-05 3.836e-05 4.028e-05 4.225e-05 4.426e-05 4.635e-05 4.851e-05 5.078e-05 5.313e-05 5.55e-05 5.761e-05 5.87e-05 5.716e-05 5.056e-05 3.627e-05 
1.131e-05 7.638e-06 7.952e-06 8.408e-06 8.917e-06 9.45e-06 9.997e-06 1.055e-05 1.112e-05 1.17e-05 1.23e-05 1.292e-05 1.356e-05 1.424e-05 1.496e-05 1.572e-05 1.653e-05 1.733e-05 1.78e-05 1.687e-05 1.131e-05 
3.263e-06 2.065e-06 2.019e-06 2.086e-06 2.197e-06 2.326e-06 2.465e-06 2.609e-06 2.758e-06 2.911e-06 3.069e-06 3.233e-06 3.403e-06 3.582e-06 3.772e-06 3.974e-06 4.194e-06 4.434e-06 4.701e-06 5.002e-06 3.263e-06 
8.479e-07 5.772e-07 5.053e-07 4.931e-07 5.05e-07 5.279e-07 5.562e-07 5.877e-07 6.212e-07 6.562e-07 6.927e-07 7.307e-07 7.704e-07 8.122e-07 8.564e-07 9.038e-07 9.55e-07 1.011e-06 1.073e-06 1.143e-06 8.479e-07 
2.134e-07 1.709e-07 1.565e-07 1.518e-07 1.52e-07 1.546e-07 1.583e-07 1.626e-07 1.674e-07 1.725e-07 1.778e-07 1.835e-07 1.896e-07 1.961e-07 2.032e-07 2.11e-07 2.196e-07 2.292e-07 2.401e-07 2.525e-07 2.134e-07 
1.486e-07 1.771e-07 1.952e-07 2.075e-07 2.146e-07 2.176e-07 2.174e-07 2.149e-07 2.106e-07 2.052e-07 1.99e-07 1.923e-07 1.854e-07 1.784e-07 1.715e-07 1.646e-07 1.58e-07 1.516e-07 1.455e-07 1.397e-07 1.486e-07 
4.405e-07 5.592e-07 6.314e-07 6.831e-07 7.15e-07 7.311e-07 7.346e-07 7.283e-07 7.145e-07 6.953e-07 6.72e-07 6.459e-07 6.178e-07 5.885e-07 5.584e-07 5.279e-07 4.971e-07 4.663e-07 4.355e-07 4.047e-07 4.405e-07 
1.565e-06 1.927e-06 2.146e-06 2.316e-06 2.428e-06 2.493e-06 2.519e-06 2.513e-06 2.481e-06 2.43e-06 2.363e-06 2.285e-06 2.198e-06 2.105e-06 2.008e-06 1.907e-06 1.805e-06 1.701e-06 1.595e-06 1.489e-06 1.565e-06 
5.272e-06 6.305e-06 6.913e-06 7.421e-06 7.769e-06 7.991e-06 8.102e-06 8.12e-06 8.06e-06 7.937e-06 7.764e-06 7.55e-06 7.306e-06 7.038e-06 6.751e-06 6.45e-06 6.137e-06 5.817e-06 5.489e-06 5.156e-06 5.272e-06 
1.663e-05 1.94e-05 2.096e-05 2.237e-05 2.334e-05 2.402e-05 2.44e-05 2.453e-05 2.444e-05 2.418e-05 2.376e-05 2.323e-05 2.26e-05 2.188e-05 2.11e-05 2.027e-05 1.94e-05 1.849e-05 1.755e-05 1.658e-05 1.663e-05 
4.904e-05 5.607e-05 5.975e-05 6.34e-05 6.59e-05 6.775e-05 6.885e-05 6.935e-05 6.931e-05 6.88e-05 6.79e-05 6.666e-05 6.514e-05 6.338e-05 6.142e-05 5.93e-05 5.703e-05 5.465e-05 5.216e-05 4.958e-05 4.904e-05 
0.0001352 0.000152 0.0001601 0.0001689 0.0001748 0.0001794 0.0001823 0.0001838 0.0001841 0.0001832 0.0001814 0.0001787 0.0001753 0.0001713 0.0001667 0.0001617 0.0001563 0.0001505 0.0001444 0.000138 0.0001352 
0.0003489 0.0003867 0.0004027 0.000423 0.0004356 0.0004465 0.0004531 0.0004572 0.0004582 0.0004569 0.0004534 0.000448 0.000441 0.0004324 0.0004226 0.0004116 0.0003995 0.0003866 0.0003728 0.0003581 0.0003489 
0.0008422 0.0009222 0.0009512 0.0009957 0.00102 0.001044 0.001057 0.001067 0.00107 0.001068 0.001062 0.001052 0.001038 0.001021 0.001001 0.000979 0.0009542 0.0009273 0.0008983 0.0008674 0.0008422 
0.001904 0.002063 0.002109 0.002202 0.002241 0.002293 0.002316 0.002338 0.002342 0.002343 0.002331 0.002314 0.002288 0.002258 0.00222 0.002179 0.002131 0.00208 0.002023 0.001963 0.001904 
0.00403 0.004328 0.00439 0.004573 0.004625 0.004732 0.004759 0.004813 0.00481 0.004824 0.004795 0.004776 0.004725 0.00468 0.00461 0.004542 0.004456 0.004368 0.004265 0.004157 0.00403 
0.007994 0.008509 0.008571 0.008912 0.00895 0.009176 0.00917 0.009307 0.009262 0.009325 0.009251 0.009251 0.009153 0.0091 0.008981 0.008881 0.008737 0.008596 0.008423 0.008241 0.007994 
0.01485 0.01567 0.01568 0.0163 0.01624 0.01669 0.01659 0.01688 0.01676 0.01691 0.01678 0.01682 0.01667 0.01661 0.01644 0.0163 0.01608 0.01586 0.01559 0.01529 0.01485 
0.02579 0.02702 0.02693 0.02788 0.02774 0.02841 0.02827 0.02869 0.02858 0.02879 0.02869 0.02873 0.0286 0.0285 0.02828 0.02806 0.02775 0.0274 0.02699 0.02653 0.02579 
0.04191 0.04351 0.04347 0.04457 0.04462 0.04532 0.04547 0.04587 0.04602 0.0462 0.04623 0.04622 0.04609 0.04588 0.04559 0.04521 0.04475 0.04422 0.04363 0.04297 0.04191 
0.06371 0.06577 0.06588 0.06721 0.06769 0.06848 0.06902 0.06944 0.06972 0.06985 0.06983 0.06967 0.06939 0.069 0.06852 0.06795 0.0673 0.06659 0.06582 0.06499 0.06371 
0.09116 0.09409 0.09464 0.09617 0.0972 0.09785 0.09834 0.09853 0.09853 0.09836 0.09805 0.09763 0.09712 0.09654 0.09592 0.09525 0.09455 0.09383 0.09308 0.09231 0.09116 
0.1244 0.1279 0.1288 0.1292 0.1296 0.1295 0.1293 0.129 0.1286 0.1282 0.1277 0.1273 0.1269 0.1265 0.1261 0.1257 0.1254 0.1251 0.1249 0.1246 0.1244 
</DataArray>
<DataArray Name="E" NumberOfComponents="1" format="ascii" type="Float64">
1.803 1.782 1.743 1.706 1.672 1.64 1.61 1.581 1.553 1.526 1.499 1.473 1.446 1.418 1.389 1.36 1.328 1.295 1.259 1.22 1.199 
1.803 1.782 1.743 1.706 1.672 1.64 1.61 1.581 1.553 1.526 1.499 1.473 1.446 1.418 1.389 1.36 1.328 1.295 1.259 1.22 1.199 
1.803 1.782 1.743 1.706 1.672 1.64 1.61 1.581 1.553 1.526 1.499 1.473 1.446 1.418 1.389 1.36 1.328 1.295 1.259 1.22 1.199 
1.803 1.782 1.743 1.706 1.672 1.64 1.61 1.581 1.553 1.526 1.499 1.473 1.446 1.418 1.389 1.36 1.328 1.295 1.259 1.22 1.199 
1.803 1.782 1.743 1.706 1.672 1.64 1.61 1.581 1.553 1.526 1.499 1.473 1.446 1.418 1.389 1.36 1.328 1.295 1.259 1.22 1.199 
1.803 1.782 1.743 1.706 1.672 1.64 1.61 1.581 1.553 1.526 1.499 1.473 1.446 1.418 1.389 1.36 1.328 1.295 1.259 1.22 1.199 
1.803 1.782 1.743 1.706 1.672 1.64 1.61 1.581 1.553 1.526 1.499 1.473 1.446 1.418 1.389 1.36 1.328 1.295 1.259 1.22 1.199 
1.803 1.782 1.743 1.706 1.672 1.64 1.61 1.581 1.553 1.526 1.499 1.473 1.446 1.418 1.389 1.36 1.328 1.295 1.259 1.22 1.199 
1.803 1.782 1.743 1.706 1.672 1.64 1.61 1.581 1.553 1.526 1.499 1.473 1.446 1.418 1.389 1.36 1.328 1.295 1.259 1.22 1.199 
1.803 1.782 1.743 1.706 1.672 1.64 1.61 1.581 1.553 1.526 1.499 1.473 1.446 1.418 1.389 1.36 1.328 1.295 1.259 1.22 1.199 
1.803 1.782 1.743 1.706 1.672 1.64 1.61 1.581 1.553 1.526 1.499 1.473 1.446 1.418 1.389 1.36 1.328 1.295 1.259 1.22 1.199 
1.803 1.782 1.743 1.706 1.672 1.64 1.61 1.581 1.553 1.526 1.499 1.473 1.446 1.418 1.389 1.36 1.328 1.295 1.259 1.22 1.199 
1.803 1.782 1.743 1.706 1.672 1.64 1.61 1.581 1.553 1.526 1.499 1.473 1.446 1.418 1.389 1.36 1.328 1.295 1.259 1.22 1.199 
1.803 1.782 1.743 1.706 1.672 1.64 1.61 1.581 1.553 1.526 1.499 1.473 1.446 1.418 1.389 1.36 1.328 1.295 1.259 1.22 1.199 
1.803 1.782 1.743 1.706 1.672 1.64 1.61 1.581 1.553 1.526 1.499 1.473 1.446 1.418 1.389 1.36 1.328 1.295 1.259 1.22 1.199 
1.803 1.782 1.743 1.706 1.672 1.64 1.61 1.581 1.553 1.526 1.499 1.473 1.446 1.418 1.389 1.36 1.328 1.295 1.259 1.22 1.199 
1.803 1.782 1.743 1.706 1.672 1.64 1.61 1.581 1.553 1.526 1.499 1.473 1.446 1.418 1.389 1.36 1.328 1.295 1.259 1.22 1.199 
1.803 1.782 1.743 1.706 1.672 1.64 1.61 1.581 1.553 1.526 1.499 1.473 1.446 1.418 1.389 1.36 1.328 1.295 1.259 1.22 1.199 
1.803 1.782 1.743 1.706 1.672 1.64 1.61 1.581 1.553 1.526 1.499 1.473 1.446 1.418 1.389 1.36 1.328 1.295 1.259 1.22 1.199 
1.803 1.782 1.743 1.706 1.672 1.64 1.61 1.581 1.553 1.526 1.499 1.473 1.446 1.418 1.389 1.36 1.328 1.295 1.259 1.22 1.199 
1.803 1.782 1.743 1.706 1.672 1.64 1.61 1.581 1.553 1.526 1.499 1.473 1.446 1.418 1.389 1.36 1.328 1.295 1.259 1.22 1.199 
1.803 1.782 1.743 1.706 1.672 1.64 1.61 1.581 1.553 1.526 1.499 1.473 1.446 1.418 1.389 1.36 1.328 1.295 1.259 1.22 1.199 
1.803 1.782 1.743 1.706 1.672 1.64 1.61 1.581 1.553 1.526 1.499 1.473 1.446 1.418 1.389 1.36 1.328 1.295 1.259 1.22 1.199 
1.803 1.782 1.743 1.706 1.672 1.64 1.61 1.581 1.553 1.526 1.499 1.473 1.446 1.418 1.389 1.36 1.328 1.295 1.259 1.22 1.199 
1.803 1.782 1.743 1.706 1.672 1.64 1.61 1.581 1.553 1.526 1.499 1.473 1.446 1.418 1.389 1.36 1.328 1.295 1.259 1.22 1.199 
1.803 1.782 1.743 1.706 1.672 1.64 1.61 1.581 1.553 1.526 1.499 1.473 1.446 1.418 1.389 1.36 1.328 1.295 1.259 1.22 1.199 
1.803 1.782 1.743 1.706 1.672 1.64 1.61 1.581 1.553 1.526 1.499 1.473 1.446 1.418 1.389 1.36 1.328 1.295 1.259 1.22 1.199 
1.803 1.782 1.743 1.706 1.672 1.64 1.61 1.581 1.553 1.526 1.499 1.473 1.446 1.418 1.389 1.36 1.328 1.295 1.259 1.22 1.199 
1.803 1.782 1.743 1.706 1.672 1.64 1.61 1.581 1.553 1.526 1.499 1.473 1.446 1.418 1.389 1.36 1.328 1.295 1.259 1.22 1.199 
1.803 1.782 1.743 1.706 1.672 1.64 1.61 1.581 1.553 1.526 1.499 1.473 1.446 1.418 1.389 1.36 1.328 1.295 1.259 1.22 1.199 
1.803 1.782 1.743 1.706 1.672 1.64 1.61 1.581 1.553 1.526 1.499 1.473 1.446 1.418 1.389 1.36 1.328 1.295 1.259 1.22 1.199 
1.803 1.782 1.743 1.706 1.672 1.64 1.61 1.581 1.553 1.526 1.499 1.473 1.446 1.418 1.389 1.36 1.328 1.295 1.259 1.22 1.199 
1.803 1.782 1.743 1.706 1.672 1.64 1.61 1.581 1.553 1.526 1.499 1.473 1.446 1.418 1.389 1.36 1.328 1.295 1.259 1.22 1.199 
1.803 1.782 1.743 1.706 1.672 1.64 1.61 1.581 1.553 1.526 1.499 1.473 1.446 1.418 1.389 1.36 1.328 1.295 1.259 1.22 1.199 
1.803 1.782 1.743 1.706 1.672 1.64 1.61 1.581 1.553 1.526 1.499 1.473 1.446 1.418 1.389 1.36 1.328 1.295 1.259 1.22 1.199 
1.803 1.782 1.743 1.706 1.672 1.64 1.61 1.581 1.553 1.526 1.499 1.473 1.446 1.418 1.389 1.36 1.328 1.295 1.259 1.22 1.199 
1.803 1.782 1.743 1.706 1.672 1.64 1.61 1.581 1.553 1.526 1.499 1.473 1.446 1.418 1.389 1.36 1.328 1.295 1.259 1.22 1.199 
1.803 1.782 1.743 1.706 1.672 1.64 1.61 1.581 1.553 1.526 1.499 1.473 1.446 1.418 1.389 1.36 1.328 1.295 1.259 1.22 1.199 
1.803 1.782 1.743 1.706 1.672 1.64 1.61 1.581 1.553 1.526 1.499 1.473 1.446 1.418 1.389 1.36 1.328 1.295 1.259 1.22 1.199 
1.803 1.782 1.743 1.706 1.672 1.64 1.61 1.581 1.553 1.526 1.499 1.473 1.446 1.418 1.389 1.36 1.328 1.295 1.259 1.22 1.199 
1.803 1.782 1.743 1.706 1.672 1.64 1.61 1.581 1.553 1.526 1.499 1.473 1.446 1.418 1.389 1.36 1.328 1.295 1.259 1.22 1.199 
</DataArray>
<DataArray Name="ne" NumberOfComponents="1" format="ascii" type="Float64">
0.9147 0.9178 0.9252 0.9293 0.9343 0.9376 0.9411 0.9432 0.9452 0.9462 0.9468 0.9464 0.9458 0.9439 0.942 0.9386 0.9355 0.9301 0.9262 0.9183 0.9143 
0.9147 0.9178 0.9252 0.9293 0.9343 0.9376 0.9411 0.9432 0.9452 0.9462 0.9468 0.9464 0.9458 0.9439 0.942 0.9386 0.9355 0.9301 0.9262 0.9183 0.9143 
0.9147 0.9178 0.9252 0.9293 0.9343 0.9376 0.9411 0.9432 0.9452 0.9462 0.9468 0.9464 0.9458 0.9439 0.942 0.9386 0.9355 0.9301 0.9262 0.9183 0.9143 
0.9147 0.9178 0.9252 0.9293 0.9343 0.9376 0.9411 0.9432 0.9452 0.9462 0.9468 0.9464 0.9458 0.9439 0.942 0.9386 0.9355 0.9301 0.9262 0.9183 0.9143 
0.9147 0.9178 0.9252 0.9293 0.9343 0.9376 0.9411 0.9432 0.9452 0.9462 0.9468 0.9464 0.9458 0.9439 0.942 0.9386 0.9355 0.9301 0.9262 0.9183 0.9143 
0.9147 0.9178 0.9252 0.9293 0.9343 0.9376 0.9411 0.9432 0.9452 0.9462 0.9468 0.9464 0.9458 0.9439 0.942 0.9386 0.9355 0.9301 0.9262 0.9183 0.9143 
0.9147 0.9178 0.9252 0.9293 0.9343 0.9376 0.9411 0.9432 0.9452 0.9462 0.9468 0.9464 0.9458 0.9439 0.942 0.9386 0.9355 0.9301 0.9262 0.9183 0.9143 
0.9147 0.9178 0.9252 0.9293 0.9343 0.9376 0.9411 0.9432 0.9452 0.9462 0.9468 0.9464 0.9458 0.9439 0.942 0.9386 0.9355 0.9301 0.9262 0.9183 0.9143 
0.9147 0.9178 0.9252 0.9293 0.9343 0.9376 0.9411 0.9432 0.9452 0.9462 0.9468 0.9464 0.9458 0.9439 0.942 0.9386 0.9355 0.9301 0.9262 0.9183 0.9143 
0.9147 0.9178 0.9252 0.9293 0.9343 0.9376 0.9411 0.9432 0.9452 0.9462 0.9468 0.9464 0.9458 0.9439 0.942 0.9386 0.9355 0.9301 0.9262 0.9183 0.9143 
0.9147 0.9178 0.9252 0.9293 0.9343 0.9376 0.9411 0.9432 0.9452 0.9462 0.9468 0.9464 0.9458 0.9439 0.942 0.9386 0.9355 0.9301 0.9262 0.9183 0.9143 
0.9147 0.9178 0.9252 0.9293 0.9343 0.9376 0.9411 0.9432 0.9452 0.9462 0.9468 0.9464 0.9458 0.9439 0.942 0.9386 0.9355 0.9301 0.9262 0.9183 0.9143 
0.9147 0.9178 0.9252 0.9293 0.9343 0.9376 0.9411 0.9432 0.9452 0.9462 0.9468 0.9464 0.9458 0.9439 0.942 0.9386 0.9355 0.9301 0.9262 0.9183 0.9143 
0.9147 0.9178 0.9252 0.9293 0.9343 0.9376 0.9411 0.9432 0.9452 0.9462 0.9468 0.9464 0.9458 0.9439 0.942 0.9386 0.9355 0.9301 0.9262 0.9183 0.9143 
0.9147 0.9178 0.9252 0.9293 0.9343 0.9376 0.9411 0.9432 0.9452 0.9462 0.9468 0.9464 0.9458 0.9439 0.942 0.9386 0.9355 0.9301 0.9262 0.9183 0.9143 
0.9147 0.9178 0.9252 0.9293 0.9343 0.9376 0.9411 0.9432 0.9452 0.9462 0.9468 0.9464 0.9458 0.9439 0.942 0.9386 0.9355 0.9301 0.9262 0.9183 0.9143 
0.9147 0.9178 0.9252 0.9293 0.9343 0.9376 0.9411 0.9432 0.9452 0.9462 0.9468 0.9464 0.9458 0.9439 0.942 0.9386 0.9355 0.9301 0.9262 0.9183 0.9143 
0.9147 0.9178 0.9252 0.9293 0.9343 0.9376 0.9411 0.9432 0.9452 0.9462 0.9468 0.9464 0.9458 0.9439 0.942 0.9386 0.9355 0.9301 0.9262 0.9183 0.9143 
0.9147 0.9178 0.9252 0.9293 0.9343 0.9376 0.9411 0.9432 0.9452 0.9462 0.9468 0.9464 0.9458 0.9439 0.942 0.9386 0.9355 0.9301 0.9262 0.9183 0.9143 
0.9147 0.9178 0.9252 0.9293 0.9343 0.9376 0.9411 0.9432 0.9452 0.9462 0.9468 0.9464 0.9458 0.9439 0.942 0.9386 0.9355 0.9301 0.9262 0.9183 0.9143 
0.9147 0.9178 0.9252 0.9293 0.9343 0.9376 0.9411 0.9432 0.9452 0.9462 0.9468 0.9464 0.9458 0.9439 0.942 0.9386 0.9355 0.9301 0.9262 0.9183 0.9143 
0.9147 0.9178 0.9252 0.9293 0.9343 0.9376 0.9411 0.9432 0.9452 0.9462 0.9468 0.9464 0.9458 0.9439 0.942 0.9386 0.9355 0.9301 0.9262 0.9183 0.9143 
0.9147 0.9178 0.9252 0.9293 0.9343 0.9376 0.9411 0.9432 0.9452 0.9462 0.9468 0.9464 0.9458 0.9439 0.942 0.9386 0.9355 0.9301 0.9262 0.9183 0.9143 
0.9147 0.9178 0.9252 0.9293 0.9343 0.9376 0.9411 0.9432 0.9452 0.9462 0.9468 0.9464 0.9458 0.9439 0.942 0.9386 0.9355 0.9301 0.9262 0.9183 0.9143 
0.9147 0.9178 0.9252 0.9293 0.9343 0.9376 0.9411 0.9432 0.9452 0.9462 0.9468 0.9464 0.9458 0.9439 0.942 0.9386 0.9355 0.9301 0.9262 0.9183 0.9143 
0.9147 0.9178 0.9252 0.9293 0.9343 0.9376 0.9411 0.9432 0.9452 0.9462 0.9468 0.9464 0.9458 0.9439 0.942 0.9386 0.9355 0.9301 0.9262 0.9183 0.9143 
0.9147 0.9178 0.9252 0.9293 0.9343 0.9376 0.9411 0.9432 0.9452 0.9462 0.9468 0.9464 0.9458 0.9439 0.942 0.9386 0.9355 0.9301 0.9262 0.9183 0.9143 
0.9147 0.9178 0.9252 0.9293 0.9343 0.9376 0.9411 0.9432 0.9452 0.9462 0.9468 0.9464 0.9458 0.9439 0.942 0.9386 0.9355 0.9301 0.9262 0.9183 0.9143 
0.9147 0.9178 0.9252 0.9293 0.9343 0.9376 0.9411 0.9432 0.9452 0.9462 0.9468 0.9464 0.9458 0.9439 0.942 0.9386 0.9355 0.9301 0.9262 0.9183 0.9143 
0.9147 0.9178 0.9252 0.9293 0.9343 0.9376 0.9411 0.9432 0.9452 0.9462 0.9468 0.9464 0.9458 0.9439 0.942 0.9386 0.9355 0.9301 0.9262 0.9183 0.9143 
0.9147 0.9178 0.9252 0.9293 0.9343 0.9376 0.9411 0.9432 0.9452 0.9462 0.9468 0.9464 0.9458 0.9439 0.942 0.9386 0.9355 0.9301 0.9262 0.9183 0.9143 
0.9147 0.9178 0.9252 0.9293 0.9343 0.9376 0.9411 0.9432 0.9452 0.9462 0.9468 0.9464 0.9458 0.9439 0.942 0.9386 0.9355 0.9301 0.9262 0.9183 0.9143 
0.9147 0.9178 0.9252 0.9293 0.9343 0.9376 0.9411 0.9432 0.9452 0.9462 0.9468 0.9464 0.9458 0.9439 0.942 0.9386 0.9355 0.9301 0.9262 0.9183 0.9143 
0.9147 0.9178 0.9252 0.9293 0.9343 0.9376 0.9411 0.9432 0.9452 0.9462 0.9468 0.9464 0.9458 0.9439 0.942 0.9386 0.9355 0.9301 0.9262 0.9183 0.9143 
0.9147 0.9178 0.9252 0.9293 0.9343 0.9376 0.9411 0.9432 0.9452 0.9462 0.9468 0.9464 0.9458 0.9439 0.942 0.9386 0.9355 0.9301 0.9262 0.9183 0.9143 
0.9147 0.9178 0.9252 0.9293 0.9343 0.9376 0.9411 0.9432 0.9452 0.9462 0.9468 0.9464 0.9458 0.9439 0.942 0.9386 0.9355 0.9301 0.9262 0.9183 0.9143 
0.9147 0.9178 0.9252 0.9293 0.9343 0.9376 0.9411 0.9432 0.9452 0.9462 0.9468 0.9464 0.9458 0.9439 0.942 0.9386 0.9355 0.9301 0.9262 0.9183 0.9143 
0.9147 0.9178 0.9252 0.9293 0.9343 0.9376 0.9411 0.9432 0.9452 0.9462 0.9468 0.9464 0.9458 0.9439 0.942 0.9386 0.9355 0.9301 0.9262 0.9183 0.9143 
0.9147 0.9178 0.9252 0.9293 0.9343 0.9376 0.9411 0.9432 0.9452 0.9462 0.9468 0.9464 0.9458 0.9439 0.942 0.9386 0.9355 0.9301 0.9262 0.9183 0.9143 
0.9147 0.9178 0.9252 0.9293 0.9343 0.9376 0.9411 0.9432 0.9452 0.9462 0.9468 0.9464 0.9458 0.9439 0.942 0.9386 0.9355 0.9301 0.9262 0.9183 0.9143 
0.9147 0.9178 0.9252 0.9293 0.9343 0.9376 0.9411 0.9432 0.9452 0.9462 0.9468 0.9464 0.9458 0.9439 0.942 0.9386 0.9355 0.9301 0.9262 0.9183 0.9143 
</DataArray>
</PointData>
</Piece>
</ImageData>
</VTKFile>
