<VTKFile type="ImageData">
<ImageData Origin="0 -10 0" Spacing="0.5 0.5 1" WholeExtent="0 20 0 40 0 0">
<Piece Extent="0 20 0 40 0 0">
<PointData>
<DataArray Name="f" NumberOfComponents="1" format="ascii" type="Float64">
3.6e-14 3.491e-14 3.448e-14 3.432e-14 3.423e-14 3.386e-14 3.193e-14 2.525e-14 1.227e-14 1.163e-15 3.533e-17 0 0 0 0 0 0 0 0 0 0 
1.128e-12 1.092e-12 1.079e-12 1.074e-12 1.072e-12 1.07e-12 1.059e-12 9.787e-13 6.76e-13 1.765e-13 2.175e-14 1.239e-15 2.542e-17 0 0 0 0 0 0 0 0 
2.798e-11 2.708e-11 2.673e-11 2.66e-11 2.656e-11 2.655e-11 2.652e-11 2.617e-11 2.291e-11 1.082e-11 2.854e-12 4.338e-13 3.701e-14 1.603e-15 2.618e-17 0 0 0 0 0 0 
5.518e-10 5.337e-10 5.266e-10 5.241e-10 5.232e-10 5.23e-10 5.229e-10 5.227e-10 5.104e-10 3.495e-10 1.539e-10 4.371e-11 7.995e-12 9.2e-13 6.276e-14 2.243e-15 3.076e-17 0 0 0 0 
8.696e-09 8.401e-09 8.286e-09 8.244e-09 8.231e-09 8.228e-09 8.227e-09 8.227e-09 8.227e-09 6.934e-09 4.323e-09 1.912e-09 5.927e-10 1.275e-10 1.862e-11 1.773e-12 1.027e-13 3.186e-15 3.891e-17 0 0 
1.099e-07 1.062e-07 1.046e-07 1.041e-07 1.039e-07 1.038e-07 1.038e-07 1.038e-07 1.038e-07 9.635e-08 7.423e-08 4.416e-08 1.961e-08 6.379e-09 1.491e-09 2.434e-10 2.658e-11 1.81e-12 6.81e-14 1.063e-15 0 
1.12e-06 1.083e-06 1.065e-06 1.059e-06 1.057e-06 1.057e-06 1.056e-06 1.056e-06 1.056e-06 1.023e-06 8.895e-07 6.418e-07 3.645e-07 1.576e-07 5.051e-08 1.163e-08 1.838e-09 1.861e-10 1.066e-11 2.563e-13 0 
9.252e-06 8.942e-06 8.791e-06 8.737e-06 8.719e-06 8.714e-06 8.713e-06 8.712e-06 8.712e-06 8.599e-06 8.005e-06 6.569e-06 4.465e-06 2.399e-06 9.825e-07 2.953e-07 6.205e-08 8.479e-09 6.626e-10 2.187e-11 0 
6.223e-05 6.016e-05 5.911e-05 5.872e-05 5.86e-05 5.856e-05 5.855e-05 5.855e-05 5.855e-05 5.825e-05 5.628e-05 5.024e-05 3.899e-05 2.488e-05 1.246e-05 4.678e-06 1.249e-06 2.198e-07 2.235e-08 9.651e-10 0 
0.0003426 0.0003314 0.0003254 0.0003233 0.0003226 0.0003224 0.0003223 0.0003223 0.0003223 0.0003217 0.0003168 0.0002981 0.0002546 0.0001861 0.0001103 5.023e-05 1.657e-05 3.653e-06 4.702e-07 2.592e-08 0 
0.001551 0.001502 0.001475 0.001465 0.001461 0.00146 0.00146 0.00146 0.00146 0.001459 0.00145 0.001407 0.001284 0.001044 0.0007126 0.0003846 0.0001536 4.166e-05 6.685e-06 4.641e-07 0 
0.005801 0.005625 0.005522 0.005486 0.005474 0.00547 0.005469 0.005469 0.005469 0.005468 0.005456 0.005383 0.005128 0.004513 0.003463 0.00217 0.001033 0.0003407 6.752e-05 5.865e-06 0 
0.01798 0.01747 0.01716 0.01705 0.01701 0.017 0.017 0.017 0.017 0.017 0.01699 0.0169 0.01651 0.01536 0.01294 0.009243 0.005172 0.002056 0.0005012 5.441e-05 0 
0.04629 0.04511 0.04436 0.04409 0.04401 0.04398 0.04398 0.04398 0.04398 0.04398 0.04397 0.04389 0.04347 0.04194 0.03791 0.03023 0.01962 0.009342 0.002797 0.0003811 0 
0.09924 0.09708 0.09563 0.09513 0.09497 0.09492 0.09491 0.0949 0.0949 0.0949 0.0949 0.09485 0.09454 0.0931 0.08837 0.07702 0.0571 0.03235 0.01193 0.002059 0 
0.1771 0.1743 0.1721 0.1714 0.1712 0.1711 0.1711 0.1711 0.1711 0.1711 0.1711 0.1711 0.1709 0.17 0.1662 0.1547 0.1286 0.086 0.03927 0.008739 0 
0.2601 0.261 0.2588 0.258 0.2578 0.2577 0.2577 0.2577 0.2577 0.2577 0.2577 0.2577 0.2577 0.2573 0.2554 0.2479 0.2253 0.1756 0.0999 0.02944 0 
0.3018 0.3241 0.3248 0.3245 0.3243 0.3243 0.3243 0.3243 0.3243 0.3243 0.3243 0.3243 0.3243 0.3242 0.3237 0.321 0.3096 0.2742 0.1941 0.07844 0 
0.2498 0.3258 0.3385 0.3402 0.3404 0.3404 0.3404 0.3404 0.3404 0.3404 0.3404 0.3404 0.3404 0.3404 0.3404 0.3401 0.3379 0.3261 0.2806 0.1613 0 
0.1199 0.2484 0.2875 0.2958 0.2972 0.2974 0.2974 0.2974 0.2974 0.2974 0.2974 0.2974 0.2974 0.2975 0.2975 0.2977 0.2983 0.299 0.2934 0.2441 0 
0.01915 0.1272 0.1881 0.2092 0.2145 0.2155 0.2156 0.2157 0.2157 0.2157 0.2157 0.2157 0.2157 0.2157 0.2157 0.216 0.2167 0.2187 0.2238 0.2353 0.244 
0 0.03884 0.08625 0.1144 0.1254 0.1285 0.1292 0.1293 0.1293 0.1293 0.1293 0.1293 0.1293 0.1293 0.1293 0.1295 0.1301 0.1316 0.1354 0.1441 0.1519 
0 0.009294 0.02858 0.04692 0.0577 0.06212 0.06344 0.06374 0.06379 0.06379 0.06379 0.06379 0.0638 0.0638 0.06383 0.06394 0.06426 0.06513 0.06726 0.07212 0.07702 
0 0.00172 0.007 0.01429 0.02038 0.02384 0.02525 0.02568 0.02577 0.02578 0.02579 0.02579 0.02579 0.02579 0.0258 0.02585 0.02599 0.02638 0.0273 0.02939 0.0317 
0 0.0002427 0.001271 0.003214 0.005417 0.007096 0.008007 0.008366 0.008469 0.008491 0.008494 0.008494 0.008494 0.008495 0.0085 0.008516 0.008565 0.008697 0.009013 0.009715 0.01055 
0 2.566e-05 0.0001699 0.0005305 0.001068 0.001604 0.001982 0.002174 0.002245 0.002264 0.002267 0.002268 0.002268 0.002268 0.002269 0.002274 0.002287 0.002323 0.002408 0.002595 0.002831 
0 1.992e-06 1.651e-05 6.351e-05 0.000154 0.0002701 0.0003749 0.000443 0.0004749 0.0004855 0.0004879 0.0004882 0.0004883 0.0004883 0.0004886 0.0004896 0.0004925 0.0005001 0.0005182 0.0005575 0.0006094 
0 1.107e-07 1.145e-06 5.429e-06 1.596e-05 3.319e-05 5.297e-05 6.927e-05 7.893e-05 8.298e-05 8.413e-05 8.432e-05 8.434e-05 8.435e-05 8.44e-05 8.456e-05 8.505e-05 8.634e-05 8.938e-05 9.593e-05 0.0001049 
0 4.277e-09 5.519e-08 3.24e-07 1.165e-06 2.915e-06 5.463e-06 8.122e-06 1.012e-05 1.117e-05 1.154e-05 1.162e-05 1.163e-05 1.163e-05 1.164e-05 1.166e-05 1.173e-05 1.19e-05 1.23e-05 1.317e-05 1.439e-05 
0 1.102e-10 1.786e-09 1.309e-08 5.825e-08 1.78e-07 4.003e-07 6.955e-07 9.767e-07 1.165e-06 1.25e-06 1.273e-06 1.276e-06 1.276e-06 1.277e-06 1.279e-06 1.286e-06 1.304e-06 1.346e-06 1.436e-06 1.567e-06 
0 1.787e-12 3.686e-11 3.42e-10 1.915e-09 7.291e-09 2.014e-08 4.21e-08 6.898e-08 9.212e-08 1.055e-07 1.101e-07 1.109e-07 1.109e-07 1.109e-07 1.111e-07 1.117e-07 1.132e-07 1.167e-07 1.24e-07 1.351e-07 
0 1.676e-14 4.493e-13 5.399e-12 3.895e-11 1.896e-10 6.627e-10 1.724e-09 3.429e-09 5.353e-09 6.807e-09 7.47e-09 7.609e-09 7.61e-09 7.613e-09 7.625e-09 7.662e-09 7.758e-09 7.982e-09 8.454e-09 9.192e-09 
0 7.883e-17 2.845e-15 4.589e-14 4.425e-13 2.864e-12 1.319e-11 4.464e-11 1.132e-10 2.182e-10 3.258e-10 3.924e-10 4.113e-10 4.113e-10 4.115e-10 4.121e-10 4.139e-10 4.188e-10 4.301e-10 4.54e-10 4.926e-10 
0 1.431e-19 7.377e-18 1.696e-16 2.323e-15 2.126e-14 1.375e-13 6.473e-13 2.246e-12 5.767e-12 1.096e-11 1.558e-11 1.747e-11 1.747e-11 1.748e-11 1.75e-11 1.757e-11 1.777e-11 1.822e-11 1.916e-11 2.075e-11 
0 0 0 1.687e-19 3.682e-18 5.346e-17 5.456e-16 4.019e-15 2.155e-14 8.362e-14 2.309e-13 4.423e-13 5.821e-13 5.822e-13 5.824e-13 5.831e-13 5.853e-13 5.912e-13 6.051e-13 6.345e-13 6.858e-13 
0 0 0 0 0 1.388e-20 2.977e-19 4.574e-18 5.059e-17 3.975e-16 2.147e-15 7.49e-15 1.517e-14 1.519e-14 1.52e-14 1.521e-14 1.527e-14 1.541e-14 1.575e-14 1.646e-14 1.776e-14 
0 0 0 0 0 0 0 0 0 0 0 0 2.926e-16 3.056e-16 3.094e-16 3.105e-16 3.115e-16 3.142e-16 3.206e-16 3.341e-16 3.601e-16 
0 0 0 0 0 0 0 0 0 0 0 0 0 2.404e-18 4.194e-18 4.809e-18 4.951e-18 5.01e-18 5.11e-18 5.318e-18 5.718e-18 
0 0 0 0 0 0 0 0 0 0 0 0 0 1.406e-20 3.628e-20 5.232e-20 5.943e-20 6.193e-20 6.352e-20 6.608e-20 7.089e-20 
0 0 0 0 0 0 0 0 0 0 0 0 0 0 0 0 0 0 0 0 0 
0 0 0 0 0 0 0 0 0 0 0 0 0 0 0 0 0 0 0 0 0 
</DataArray>
<DataArray Name="E" NumberOfComponents="1" format="ascii" type="Float64">
1.667 1.628 1.571 1.548 1.539 1.536 1.535 1.535 1.535 1.535 1.535 1.535 1.535 1.534 1.532 1.524 1.503 1.453 1.352 1.172 1.058 
1.667 1.628 1.571 1.548 1.539 1.536 1.535 1.535 1.535 1.535 1.535 1.535 1.535 1.534 1.532 1.524 1.503 1.453 1.352 1.172 1.058 
1.667 1.628 1.571 1.548 1.539 1.536 1.535 1.535 1.535 1.535 1.535 1.535 1.535 1.534 1.532 1.524 1.503 1.453 1.352 1.172 1.058 
1.667 1.628 1.571 1.548 1.539 1.536 1.535 1.535 1.535 1.535 1.535 1.535 1.535 1.534 1.532 1.524 1.503 1.453 1.352 1.172 1.058 
1.667 1.628 1.571 1.548 1.539 1.536 1.535 1.535 1.535 1.535 1.535 1.535 1.535 1.534 1.532 1.524 1.503 1.453 1.352 1.172 1.058 
1.667 1.628 1.571 1.548 1.539 1.536 1.535 1.535 1.535 1.535 1.535 1.535 1.535 1.534 1.532 1.524 1.503 1.453 1.352 1.172 1.058 
1.667 1.628 1.571 1.548 1.539 1.536 1.535 1.535 1.535 1.535 1.535 1.535 1.535 1.534 1.532 1.524 1.503 1.453 1.352 1.172 1.058 
1.667 1.628 1.571 1.548 1.539 1.536 1.535 1.535 1.535 1.535 1.535 1.535 1.535 1.534 1.532 1.524 1.503 1.453 1.352 1.172 1.058 
1.667 1.628 1.571 1.548 1.539 1.536 1.535 1.535 1.535 1.535 1.535 1.535 1.535 1.534 1.532 1.524 1.503 1.453 1.352 1.172 1.058 
1.667 1.628 1.571 1.548 1.539 1.536 1.535 1.535 1.535 1.535 1.535 1.535 1.535 1.534 1.532 1.524 1.503 1.453 1.352 1.172 1.058 
1.667 1.628 1.571 1.548 1.539 1.536 1.535 1.535 1.535 1.535 1.535 1.535 1.535 1.534 1.532 1.524 1.503 1.453 1.352 1.172 1.058 
1.667 1.628 1.571 1.548 1.539 1.536 1.535 1.535 1.535 1.535 1.535 1.535 1.535 1.534 1.532 1.524 1.503 1.453 1.352 1.172 1.058 
1.667 1.628 1.571 1.548 1.539 1.536 1.535 1.535 1.535 1.535 1.535 1.535 1.535 1.534 1.532 1.524 1.503 1.453 1.352 1.172 1.058 
1.667 1.628 1.571 1.548 1.539 1.536 1.535 1.535 1.535 1.535 1.535 1.535 1.535 1.534 1.532 1.524 1.503 1.453 1.352 1.172 1.058 
1.667 1.628 1.571 1.548 1.539 1.536 1.535 1.535 1.535 1.535 1.535 1.535 1.535 1.534 1.532 1.524 1.503 1.453 1.352 1.172 1.058 
1.667 1.628 1.571 1.548 1.539 1.536 1.535 1.535 1.535 1.535 1.535 1.535 1.535 1.534 1.532 1.524 1.503 1.453 1.352 1.172 1.058 
1.667 1.628 1.571 1.548 1.539 1.536 1.535 1.535 1.535 1.535 1.535 1.535 1.535 1.534 1.532 1.524 1.503 1.453 1.352 1.172 1.058 
1.667 1.628 1.571 1.548 1.539 1.536 1.535 1.535 1.535 1.535 1.535 1.535 1.535 1.534 1.532 1.524 1.503 1.453 1.352 1.172 1.058 
1.667 1.628 1.571 1.548 1.539 1.536 1.535 1.535 1.535 1.535 1.535 1.535 1.535 1.534 1.532 1.524 1.503 1.453 1.352 1.172 1.058 
1.667 1.628 1.571 1.548 1.539 1.536 1.535 1.535 1.535 1.535 1.535 1.535 1.535 1.534 1.532 1.524 1.503 1.453 1.352 1.172 1.058 
1.667 1.628 1.571 1.548 1.539 1.536 1.535 1.535 1.535 1.535 1.535 1.535 1.535 1.534 1.532 1.524 1.503 1.453 1.352 1.172 1.058 
1.667 1.628 1.571 1.548 1.539 1.536 1.535 1.535 1.535 1.535 1.535 1.535 1.535 1.534 1.532 1.524 1.503 1.453 1.352 1.172 1.058 
1.667 1.628 1.571 1.548 1.539 1.536 1.535 1.535 1.535 1.535 1.535 1.535 1.535 1.534 1.532 1.524 1.503 1.453 1.352 1.172 1.058 
1.667 1.628 1.571 1.548 1.539 1.536 1.535 1.535 1.535 1.535 1.535 1.535 1.535 1.534 1.532 1.524 1.503 1.453 1.352 1.172 1.058 
1.667 1.628 1.571 1.548 1.539 1.536 1.535 1.535 1.535 1.535 1.535 1.535 1.535 1.534 1.532 1.524 1.503 1.453 1.352 1.172 1.058 
1.667 1.628 1.571 1.548 1.539 1.536 1.535 1.535 1.535 1.535 1.535 1.535 1.535 1.534 1.532 1.524 1.503 1.453 1.352 1.172 1.058 
1.667 1.628 1.571 1.548 1.539 1.536 1.535 1.535 1.535 1.535 1.535 1.535 1.535 1.534 1.532 1.524 1.503 1.453 1.352 1.172 1.058 
1.667 1.628 1.571 1.548 1.539 1.536 1.535 1.535 1.535 1.535 1.535 1.535 1.535 1.534 1.532 1.524 1.503 1.453 1.352 1.172 1.058 
1.667 1.628 1.571 1.548 1.539 1.536 1.535 1.535 1.535 1.535 1.535 1.535 1.535 1.534 1.532 1.524 1.503 1.453 1.352 1.172 1.058 
1.667 1.628 1.571 1.548 1.539 1.536 1.535 1.535 1.535 1.535 1.535 1.535 1.535 1.534 1.532 1.524 1.503 1.453 1.352 1.172 1.058 
1.667 1.628 1.571 1.548 1.539 1.536 1.535 1.535 1.535 1.535 1.535 1.535 1.535 1.534 1.532 1.524 1.503 1.453 1.352 1.172 1.058 
1.667 1.628 1.571 1.548 1.539 1.536 1.535 1.535 1.535 1.535 1.535 1.535 1.535 1.534 1.532 1.524 1.503 1.453 1.352 1.172 1.058 
1.667 1.628 1.571 1.548 1.539 1.536 1.535 1.535 1.535 1.535 1.535 1.535 1.535 1.534 1.532 1.524 1.503 1.453 1.352 1.172 1.058 
1.667 1.628 1.571 1.548 1.539 1.536 1.535 1.535 1.535 1.535 1.535 1.535 1.535 1.534 1.532 1.524 1.503 1.453 1.352 1.172 1.058 
1.667 1.628 1.571 1.548 1.539 1.536 1.535 1.535 1.535 1.535 1.535 1.535 1.535 1.534 1.532 1.524 1.503 1.453 1.352 1.172 1.058 
1.667 1.628 1.571 1.548 1.539 1.536 1.535 1.535 1.535 1.535 1.535 1.535 1.535 1.534 1.532 1.524 1.503 1.453 1.352 1.172 1.058 
1.667 1.628 1.571 1.548 1.539 1.536 1.535 1.535 1.535 1.535 1.535 1.535 1.535 1.534 1.532 1.524 1.503 1.453 1.352 1.172 1.058 
1.667 1.628 1.571 1.548 1.539 1.536 1.535 1.535 1.535 1.535 1.535 1.535 1.535 1.534 1.532 1.524 1.503 1.453 1.352 1.172 1.058 
1.667 1.628 1.571 1.548 1.539 1.536 1.535 1.535 1.535 1.535 1.535 1.535 1.535 1.534 1.532 1.524 1.503 1.453 1.352 1.172 1.058 
1.667 1.628 1.571 1.548 1.539 1.536 1.535 1.535 1.535 1.535 1.535 1.535 1.535 1.534 1.532 1.524 1.503 1.453 1.352 1.172 1.058 
1.667 1.628 1.571 1.548 1.539 1.536 1.535 1.535 1.535 1.535 1.535 1.535 1.535 1.534 1.532 1.524 1.503 1.453 1.352 1.172 1.058 
</DataArray>
<DataArray Name="ne" NumberOfComponents="1" format="ascii" type="Float64">
0.6386 0.8405 0.9325 0.9742 0.9913 0.9974 0.9994 0.9999 1 1 1 0.9999 0.9996 0.998 0.9924 0.9765 0.9386 0.8628 0.7338 0.5442 0.2959 
0.6386 0.8405 0.9325 0.9742 0.9913 0.9974 0.9994 0.9999 1 1 1 0.9999 0.9996 0.998 0.9924 0.9765 0.9386 0.8628 0.7338 0.5442 0.2959 
0.6386 0.8405 0.9325 0.9742 0.9913 0.9974 0.9994 0.9999 1 1 1 0.9999 0.9996 0.998 0.9924 0.9765 0.9386 0.8628 0.7338 0.5442 0.2959 
0.6386 0.8405 0.9325 0.9742 0.9913 0.9974 0.9994 0.9999 1 1 1 0.9999 0.9996 0.998 0.9924 0.9765 0.9386 0.8628 0.7338 0.5442 0.2959 
0.6386 0.8405 0.9325 0.9742 0.9913 0.9974 0.9994 0.9999 1 1 1 0.9999 0.9996 0.998 0.9924 0.9765 0.9386 0.8628 0.7338 0.5442 0.2959 
0.6386 0.8405 0.9325 0.9742 0.9913 0.9974 0.9994 0.9999 1 1 1 0.9999 0.9996 0.998 0.9924 0.9765 0.9386 0.8628 0.7338 0.5442 0.2959 
0.6386 0.8405 0.9325 0.9742 0.9913 0.9974 0.9994 0.9999 1 1 1 0.9999 0.9996 0.998 0.9924 0.9765 0.9386 0.8628 0.7338 0.5442 0.2959 
0.6386 0.8405 0.9325 0.9742 0.9913 0.9974 0.9994 0.9999 1 1 1 0.9999 0.9996 0.998 0.9924 0.9765 0.9386 0.8628 0.7338 0.5442 0.2959 
0.6386 0.8405 0.9325 0.9742 0.9913 0.9974 0.9994 0.9999 1 1 1 0.9999 0.9996 0.998 0.9924 0.9765 0.9386 0.8628 0.7338 0.5442 0.2959 
0.6386 0.8405 0.9325 0.9742 0.9913 0.9974 0.9994 0.9999 1 1 1 0.9999 0.9996 0.998 0.9924 0.9765 0.9386 0.8628 0.7338 0.5442 0.2959 
0.6386 0.8405 0.9325 0.9742 0.9913 0.9974 0.9994 0.9999 1 1 1 0.9999 0.9996 0.998 0.9924 0.9765 0.9386 0.8628 0.7338 0.5442 0.2959 
0.6386 0.8405 0.9325 0.9742 0.9913 0.9974 0.9994 0.9999 1 1 1 0.9999 0.9996 0.998 0.9924 0.9765 0.9386 0.8628 0.7338 0.5442 0.2959 
0.6386 0.8405 0.9325 0.9742 0.9913 0.9974 0.9994 0.9999 1 1 1 0.9999 0.9996 0.998 0.9924 0.9765 0.9386 0.8628 0.7338 0.5442 0.2959 
0.6386 0.8405 0.9325 0.9742 0.9913 0.9974 0.9994 0.9999 1 1 1 0.9999 0.9996 0.998 0.9924 0.9765 0.9386 0.8628 0.7338 0.5442 0.2959 
0.6386 0.8405 0.9325 0.9742 0.9913 0.9974 0.9994 0.9999 1 1 1 0.9999 0.9996 0.998 0.9924 0.9765 0.9386 0.8628 0.7338 0.5442 0.2959 
0.6386 0.8405 0.9325 0.9742 0.9913 0.9974 0.9994 0.9999 1 1 1 0.9999 0.9996 0.998 0.9924 0.9765 0.9386 0.8628 0.7338 0.5442 0.2959 
0.6386 0.8405 0.9325 0.9742 0.9913 0.9974 0.9994 0.9999 1 1 1 0.9999 0.9996 0.998 0.9924 0.9765 0.9386 0.8628 0.7338 0.5442 0.2959 
0.6386 0.8405 0.9325 0.9742 0.9913 0.9974 0.9994 0.9999 1 1 1 0.9999 0.9996 0.998 0.9924 0.9765 0.9386 0.8628 0.7338 0.5442 0.2959 
0.6386 0.8405 0.9325 0.9742 0.9913 0.9974 0.9994 0.9999 1 1 1 0.9999 0.9996 0.998 0.9924 0.9765 0.9386 0.8628 0.7338 0.5442 0.2959 
0.6386 0.8405 0.9325 0.9742 0.9913 0.9974 0.9994 0.9999 1 1 1 0.9999 0.9996 0.998 0.9924 0.9765 0.9386 0.8628 0.7338 0.5442 0.2959 
0.6386 0.8405 0.9325 0.9742 0.9913 0.9974 0.9994 0.9999 1 1 1 0.9999 0.9996 0.998 0.9924 0.9765 0.9386 0.8628 0.7338 0.5442 0.2959 
0.6386 0.8405 0.9325 0.9742 0.9913 0.9974 0.9994 0.9999 1 1 1 0.9999 0.9996 0.998 0.9924 0.9765 0.9386 0.8628 0.7338 0.5442 0.2959 
0.6386 0.8405 0.9325 0.9742 0.9913 0.9974 0.9994 0.9999 1 1 1 0.9999 0.9996 0.998 0.9924 0.9765 0.9386 0.8628 0.7338 0.5442 0.2959 
0.6386 0.8405 0.9325 0.9742 0.9913 0.9974 0.9994 0.9999 1 1 1 0.9999 0.9996 0.998 0.9924 0.9765 0.9386 0.8628 0.7338 0.5442 0.2959 
0.6386 0.8405 0.9325 0.9742 0.9913 0.9974 0.9994 0.9999 1 1 1 0.9999 0.9996 0.998 0.9924 0.9765 0.9386 0.8628 0.7338 0.5442 0.2959 
0.6386 0.8405 0.9325 0.9742 0.9913 0.9974 0.9994 0.9999 1 1 1 0.9999 0.9996 0.998 0.9924 0.9765 0.9386 0.8628 0.7338 0.5442 0.2959 
0.6386 0.8405 0.9325 0.9742 0.9913 0.9974 0.9994 0.9999 1 1 1 0.9999 0.9996 0.998 0.9924 0.9765 0.9386 0.8628 0.7338 0.5442 0.2959 
0.6386 0.8405 0.9325 0.9742 0.9913 0.9974 0.9994 0.9999 1 1 1 0.9999 0.9996 0.998 0.9924 0.9765 0.9386 0.8628 0.7338 0.5442 0.2959 
0.6386 0.8405 0.9325 0.9742 0.9913 0.9974 0.9994 0.9999 1 1 1 0.9999 0.9996 0.998 0.9924 0.9765 0.9386 0.8628 0.7338 0.5442 0.2959 
0.6386 0.8405 0.9325 0.9742 0.9913 0.9974 0.9994 0.9999 1 1 1 0.9999 0.9996 0.998 0.9924 0.9765 0.9386 0.8628 0.7338 0.5442 0.2959 
0.6386 0.8405 0.9325 0.9742 0.9913 0.9974 0.9994 0.9999 1 1 1 0.9999 0.9996 0.998 0.9924 0.9765 0.9386 0.8628 0.7338 0.5442 0.2959 
0.6386 0.8405 0.9325 0.9742 0.9913 0.9974 0.9994 0.9999 1 1 1 0.9999 0.9996 0.998 0.9924 0.9765 0.9386 0.8628 0.7338 0.5442 0.2959 
0.6386 0.8405 0.9325 0.9742 0.9913 0.9974 0.9994 0.9999 1 1 1 0.9999 0.9996 0.998 0.9924 0.9765 0.9386 0.8628 0.7338 0.5442 0.2959 
0.6386 0.8405 0.9325 0.9742 0.9913 0.9974 0.9994 0.9999 1 1 1 0.9999 0.9996 0.998 0.9924 0.9765 0.9386 0.8628 0.7338 0.5442 0.2959 
0.6386 0.8405 0.9325 0.9742 0.9913 0.9974 0.9994 0.9999 1 1 1 0.9999 0.9996 0.998 0.9924 0.9765 0.9386 0.8628 0.7338 0.5442 0.2959 
0.6386 0.8405 0.9325 0.9742 0.9913 0.9974 0.9994 0.9999 1 1 1 0.9999 0.9996 0.998 0.9924 0.9765 0.9386 0.8628 0.7338 0.5442 0.2959 
0.6386 0.8405 0.9325 0.9742 0.9913 0.9974 0.9994 0.9999 1 1 1 0.9999 0.9996 0.998 0.9924 0.9765 0.9386 0.8628 0.7338 0.5442 0.2959 
0.6386 0.8405 0.9325 0.9742 0.9913 0.9974 0.9994 0.9999 1 1 1 0.9999 0.9996 0.998 0.9924 0.9765 0.9386 0.8628 0.7338 0.5442 0.2959 
0.6386 0.8405 0.9325 0.9742 0.9913 0.9974 0.9994 0.9999 1 1 1 0.9999 0.9996 0.998 0.9924 0.9765 0.9386 0.8628 0.7338 0.5442 0.2959 
0.6386 0.8405 0.9325 0.9742 0.9913 0.9974 0.9994 0.9999 1 1 1 0.9999 0.9996 0.998 0.9924 0.9765 0.9386 0.8628 0.7338 0.5442 0.2959 
0.6386 0.8405 0.9325 0.9742 0.9913 0.9974 0.9994 0.9999 1 1 1 0.9999 0.9996 0.998 0.9924 0.9765 0.9386 0.8628 0.7338 0.5442 0.2959 
</DataArray>
</PointData>
</Piece>
</ImageData>
</VTKFile>
