<VTKFile type="ImageData">
<ImageData Origin="0 -10 0" Spacing="0.5 0.5 1" WholeExtent="0 20 0 40 0 0">
<Piece Extent="0 20 0 40 0 0">
<PointData>
<DataArray Name="f" NumberOfComponents="1" format="ascii" type="Float64">
2.634e-07 1.653e-08 1.736e-10 1.745e-12 2.556e-14 1.592e-16 1.951e-19 0 0 0 0 0 0 0 0 0 0 0 0 0 0 
1.125e-05 1.145e-06 3.098e-08 1.128e-09 4.158e-11 9.192e-13 1.035e-14 4.104e-17 0 0 0 0 0 0 0 0 0 0 0 0 0 
0.00023 3.677e-05 2.441e-06 2.03e-07 1.468e-08 7.336e-10 2.367e-11 4.411e-13 3.84e-15 8.829e-18 0 0 0 0 0 0 0 0 0 0 0 
0.002497 0.0006088 8.537e-05 1.278e-05 1.589e-06 1.478e-07 9.912e-09 4.562e-10 1.334e-11 2.173e-13 1.499e-15 1.754e-18 0 0 0 0 0 0 0 0 0 
0.0151 0.005373 0.001366 0.0003255 6.399e-05 9.9e-06 1.181e-06 1.056e-07 6.835e-09 3.038e-10 8.541e-12 1.31e-13 7.764e-16 3.212e-19 0 0 0 0 0 0 0 
0.05402 0.02656 0.01035 0.003492 0.0009864 0.0002261 4.126e-05 5.876e-06 6.366e-07 5.067e-08 2.82e-09 1.016e-10 2.068e-12 1.749e-14 1.263e-17 0 0 0 0 0 0 
0.122 0.07731 0.04095 0.01847 0.006996 0.002182 0.00055 0.0001099 1.696e-05 1.957e-06 1.606e-07 8.694e-09 2.71e-10 3.579e-12 4.857e-15 2.34e-20 0 0 0 0 0 
0.1898 0.1475 0.09983 0.05785 0.02838 0.0116 0.00388 0.00104 0.0002179 3.45e-05 3.937e-06 3.007e-07 1.348e-08 2.661e-10 6.91e-13 3.948e-17 0 0 0 0 0 
0.2172 0.1982 0.1639 0.1183 0.07336 0.03844 0.01669 0.005873 0.001633 0.0003468 5.373e-05 5.656e-06 3.575e-07 1.042e-08 5.147e-11 1.693e-14 1.084e-17 0 0 0 0 
0.1929 0.1989 0.1928 0.1684 0.1292 0.08526 0.04733 0.02158 0.007861 0.002214 0.0004609 6.626e-05 5.863e-06 2.513e-07 2.323e-09 2.951e-12 5.74e-15 9.882e-18 0 0 0 
0.1383 0.1561 0.1711 0.1752 0.1624 0.1326 0.09291 0.05431 0.02573 0.009554 0.00266 0.0005205 6.439e-05 4.066e-06 6.89e-08 2.633e-10 1.261e-12 4.73e-15 9.496e-18 0 0 
0.08078 0.0988 0.1192 0.1388 0.1514 0.1498 0.1304 0.0967 0.05918 0.02886 0.01073 0.002861 0.0004959 4.632e-05 1.411e-06 1.37e-08 1.406e-10 1.029e-12 3.918e-15 5.174e-18 0 
0.03728 0.05036 0.06677 0.08663 0.1083 0.1266 0.1341 0.1244 0.09756 0.06224 0.0309 0.01125 0.002748 0.0003818 2.058e-05 4.5e-07 8.964e-09 1.184e-10 7.969e-13 1.847e-15 0 
0.0127 0.01983 0.02972 0.04322 0.06104 0.08214 0.1033 0.1175 0.1165 0.09659 0.06397 0.03193 0.01106 0.002304 0.0002171 9.765e-06 3.515e-07 7.926e-09 8.971e-11 3.488e-13 0 
0.002902 0.005592 0.01002 0.01696 0.0274 0.04187 0.0608 0.08252 0.1013 0.1078 0.09483 0.06503 0.03217 0.01016 0.001657 0.0001431 8.84e-06 3.277e-07 6.037e-09 3.825e-11 0 
0.0003961 0.001024 0.00236 0.004971 0.009631 0.0169 0.0279 0.04381 0.06452 0.08611 0.09929 0.0933 0.06634 0.03207 0.008984 0.001415 0.0001452 8.659e-06 2.551e-07 2.597e-09 0 
2.768e-05 0.0001076 0.0003512 0.001008 0.002526 0.00531 0.01005 0.01789 0.03045 0.04899 0.07192 0.09125 0.09315 0.06948 0.03318 0.00921 0.001548 0.0001479 6.96e-06 1.139e-07 0 
7.844e-07 5.493e-06 2.899e-05 0.0001282 0.0004605 0.001237 0.002791 0.005674 0.01087 0.02004 0.03546 0.05824 0.08351 0.09562 0.07713 0.03721 0.01036 0.001615 0.0001237 3.32e-06 0 
6.468e-09 1.054e-07 1.097e-06 9.016e-06 5.334e-05 0.0001983 0.0005657 0.001367 0.002976 0.006094 0.01211 0.02358 0.04403 0.07388 0.09838 0.08378 0.04053 0.01082 0.001413 6.524e-05 0 
9.259e-12 5.216e-10 1.426e-08 2.931e-07 3.527e-06 1.995e-05 7.714e-05 0.0002353 0.0006106 0.001419 0.00308 0.006469 0.01352 0.02827 0.05625 0.08795 0.08141 0.04068 0.009888 0.0008647 0 
0 1.663e-12 1.106e-10 4.319e-09 1.299e-07 1.21e-06 6.716e-06 2.725e-05 8.903e-05 0.0002481 0.0006152 0.001407 0.003068 0.006565 0.01411 0.03684 0.07256 0.07532 0.03772 0.007539 0.0009874 
0 1.219e-14 1.273e-12 8.829e-11 4.925e-09 6.541e-08 4.845e-07 2.529e-06 1.034e-05 3.513e-05 0.0001035 0.0002735 0.0006669 0.001546 0.003506 0.01028 0.03212 0.06274 0.06346 0.03097 0.01105 
0 5.975e-17 9.6e-15 1.217e-12 1.288e-10 2.4e-09 2.36e-08 1.587e-07 8.166e-07 3.429e-06 1.224e-05 3.834e-05 0.0001081 0.0002816 0.0006943 0.00231 0.009251 0.02909 0.05339 0.05185 0.0341 
0 1.868e-19 4.507e-17 1.097e-14 2.27e-12 5.816e-11 7.515e-10 6.488e-09 4.215e-08 2.201e-07 9.634e-07 3.643e-06 1.219e-05 3.684e-05 0.0001027 0.000415 0.002014 0.008785 0.02615 0.04501 0.04903 
0 0 1.229e-19 6.163e-17 2.606e-14 8.976e-13 1.506e-11 1.66e-10 1.359e-09 8.85e-09 4.781e-08 2.208e-07 8.911e-07 3.203e-06 1.042e-05 5.672e-05 0.0003469 0.001921 0.008296 0.02315 0.03913 
0 0 0 2.017e-19 1.853e-16 8.404e-15 1.81e-13 2.53e-12 2.604e-11 2.114e-10 1.414e-09 8.023e-09 3.948e-08 1.714e-07 6.654e-07 5.596e-06 4.672e-05 0.0003231 0.001843 0.007644 0.01894 
0 0 0 0 7.626e-19 4.475e-17 1.225e-15 2.16e-14 2.786e-13 2.821e-12 2.34e-11 1.639e-10 9.897e-10 5.24e-09 2.464e-08 3.818e-07 4.759e-06 4.239e-05 0.0003034 0.001718 0.005898 
0 0 0 0 0 1.244e-19 4.308e-18 9.547e-17 1.543e-15 1.949e-14 2.01e-13 1.744e-12 1.3e-11 8.464e-11 4.869e-10 1.743e-08 3.544e-07 4.268e-06 3.804e-05 0.0002753 0.001237 
0 0 0 0 0 0 0 1.969e-19 3.994e-18 6.319e-17 8.144e-16 8.805e-15 8.158e-14 6.579e-13 4.675e-12 5.159e-10 1.866e-08 3.193e-07 3.626e-06 3.243e-05 0.0001823 
0 0 0 0 0 0 0 0 0 8.407e-20 1.365e-18 1.856e-17 2.157e-16 2.179e-15 1.934e-14 9.537e-12 6.712e-10 1.709e-08 2.558e-07 2.828e-06 1.941e-05 
0 0 0 0 0 0 0 0 0 0 0 1.36e-20 2.014e-19 2.587e-18 2.916e-17 1.044e-13 1.583e-11 6.253e-10 1.279e-08 1.786e-07 1.498e-06 
0 0 0 0 0 0 0 0 0 0 0 0 0 0 1.238e-20 6.256e-16 2.319e-13 1.479e-11 4.279e-10 7.791e-09 8.122e-08 
0 0 0 0 0 0 0 0 0 0 0 0 0 0 0 1.81e-18 1.946e-15 2.099e-13 8.892e-12 2.182e-10 2.911e-09 
0 0 0 0 0 0 0 0 0 0 0 0 0 0 0 0 8.237e-18 1.597e-15 1.029e-13 3.527e-12 6.247e-11 
0 0 0 0 0 0 0 0 0 0 0 0 0 0 0 0 1.407e-20 5.402e-18 5.529e-16 2.761e-14 6.824e-13 
0 0 0 0 0 0 0 0 0 0 0 0 0 0 0 0 0 0 9.337e-19 7.269e-17 2.749e-15 
0 0 0 0 0 0 0 0 0 0 0 0 0 0 0 0 0 0 0 1.068e-20 1.23e-18 
0 0 0 0 0 0 0 0 0 0 0 0 0 0 0 0 0 0 0 0 0 
0 0 0 0 0 0 0 0 0 0 0 0 0 0 0 0 0 0 0 0 0 
0 0 0 0 0 0 0 0 0 0 0 0 0 0 0 0 0 0 0 0 0 
0 0 0 0 0 0 0 0 0 0 0 0 0 0 0 0 0 0 0 0 0 
</DataArray>
<DataArray Name="E" NumberOfComponents="1" format="ascii" type="Float64">
4.641 4.525 4.285 4.024 3.743 3.444 3.126 2.791 2.441 2.076 1.698 1.309 0.908 0.4981 0.08011 -0.3451 -0.7767 -1.214 -1.657 -2.108 -2.336 
4.641 4.525 4.285 4.024 3.743 3.444 3.126 2.791 2.441 2.076 1.698 1.309 0.908 0.4981 0.08011 -0.3451 -0.7767 -1.214 -1.657 -2.108 -2.336 
4.641 4.525 4.285 4.024 3.743 3.444 3.126 2.791 2.441 2.076 1.698 1.309 0.908 0.4981 0.08011 -0.3451 -0.7767 -1.214 -1.657 -2.108 -2.336 
4.641 4.525 4.285 4.024 3.743 3.444 3.126 2.791 2.441 2.076 1.698 1.309 0.908 0.4981 0.08011 -0.3451 -0.7767 -1.214 -1.657 -2.108 -2.336 
4.641 4.525 4.285 4.024 3.743 3.444 3.126 2.791 2.441 2.076 1.698 1.309 0.908 0.4981 0.08011 -0.3451 -0.7767 -1.214 -1.657 -2.108 -2.336 
4.641 4.525 4.285 4.024 3.743 3.444 3.126 2.791 2.441 2.076 1.698 1.309 0.908 0.4981 0.08011 -0.3451 -0.7767 -1.214 -1.657 -2.108 -2.336 
4.641 4.525 4.285 4.024 3.743 3.444 3.126 2.791 2.441 2.076 1.698 1.309 0.908 0.4981 0.08011 -0.3451 -0.7767 -1.214 -1.657 -2.108 -2.336 
4.641 4.525 4.285 4.024 3.743 3.444 3.126 2.791 2.441 2.076 1.698 1.309 0.908 0.4981 0.08011 -0.3451 -0.7767 -1.214 -1.657 -2.108 -2.336 
4.641 4.525 4.285 4.024 3.743 3.444 3.126 2.791 2.441 2.076 1.698 1.309 0.908 0.4981 0.08011 -0.3451 -0.7767 -1.214 -1.657 -2.108 -2.336 
4.641 4.525 4.285 4.024 3.743 3.444 3.126 2.791 2.441 2.076 1.698 1.309 0.908 0.4981 0.08011 -0.3451 -0.7767 -1.214 -1.657 -2.108 -2.336 
4.641 4.525 4.285 4.024 3.743 3.444 3.126 2.791 2.441 2.076 1.698 1.309 0.908 0.4981 0.08011 -0.3451 -0.7767 -1.214 -1.657 -2.108 -2.336 
4.641 4.525 4.285 4.024 3.743 3.444 3.126 2.791 2.441 2.076 1.698 1.309 0.908 0.4981 0.08011 -0.3451 -0.7767 -1.214 -1.657 -2.108 -2.336 
4.641 4.525 4.285 4.024 3.743 3.444 3.126 2.791 2.441 2.076 1.698 1.309 0.908 0.4981 0.08011 -0.3451 -0.7767 -1.214 -1.657 -2.108 -2.336 
4.641 4.525 4.285 4.024 3.743 3.444 3.126 2.791 2.441 2.076 1.698 1.309 0.908 0.4981 0.08011 -0.3451 -0.7767 -1.214 -1.657 -2.108 -2.336 
4.641 4.525 4.285 4.024 3.743 3.444 3.126 2.791 2.441 2.076 1.698 1.309 0.908 0.4981 0.08011 -0.3451 -0.7767 -1.214 -1.657 -2.108 -2.336 
4.641 4.525 4.285 4.024 3.743 3.444 3.126 2.791 2.441 2.076 1.698 1.309 0.908 0.4981 0.08011 -0.3451 -0.7767 -1.214 -1.657 -2.108 -2.336 
4.641 4.525 4.285 4.024 3.743 3.444 3.126 2.791 2.441 2.076 1.698 1.309 0.908 0.4981 0.08011 -0.3451 -0.7767 -1.214 -1.657 -2.108 -2.336 
4.641 4.525 4.285 4.024 3.743 3.444 3.126 2.791 2.441 2.076 1.698 1.309 0.908 0.4981 0.08011 -0.3451 -0.7767 -1.214 -1.657 -2.108 -2.336 
4.641 4.525 4.285 4.024 3.743 3.444 3.126 2.791 2.441 2.076 1.698 1.309 0.908 0.4981 0.08011 -0.3451 -0.7767 -1.214 -1.657 -2.108 -2.336 
4.641 4.525 4.285 4.024 3.743 3.444 3.126 2.791 2.441 2.076 1.698 1.309 0.908 0.4981 0.08011 -0.3451 -0.7767 -1.214 -1.657 -2.108 -2.336 
4.641 4.525 4.285 4.024 3.743 3.444 3.126 2.791 2.441 2.076 1.698 1.309 0.908 0.4981 0.08011 -0.3451 -0.7767 -1.214 -1.657 -2.108 -2.336 
4.641 4.525 4.285 4.024 3.743 3.444 3.126 2.791 2.441 2.076 1.698 1.309 0.908 0.4981 0.08011 -0.3451 -0.7767 -1.214 -1.657 -2.108 -2.336 
4.641 4.525 4.285 4.024 3.743 3.444 3.126 2.791 2.441 2.076 1.698 1.309 0.908 0.4981 0.08011 -0.3451 -0.7767 -1.214 -1.657 -2.108 -2.336 
4.641 4.525 4.285 4.024 3.743 3.444 3.126 2.791 2.441 2.076 1.698 1.309 0.908 0.4981 0.08011 -0.3451 -0.7767 -1.214 -1.657 -2.108 -2.336 
4.641 4.525 4.285 4.024 3.743 3.444 3.126 2.791 2.441 2.076 1.698 1.309 0.908 0.4981 0.08011 -0.3451 -0.7767 -1.214 -1.657 -2.108 -2.336 
4.641 4.525 4.285 4.024 3.743 3.444 3.126 2.791 2.441 2.076 1.698 1.309 0.908 0.4981 0.08011 -0.3451 -0.7767 -1.214 -1.657 -2.108 -2.336 
4.641 4.525 4.285 4.024 3.743 3.444 3.126 2.791 2.441 2.076 1.698 1.309 0.908 0.4981 0.08011 -0.3451 -0.7767 -1.214 -1.657 -2.108 -2.336 
4.641 4.525 4.285 4.024 3.743 3.444 3.126 2.791 2.441 2.076 1.698 1.309 0.908 0.4981 0.08011 -0.3451 -0.7767 -1.214 -1.657 -2.108 -2.336 
4.641 4.525 4.285 4.024 3.743 3.444 3.126 2.791 2.441 2.076 1.698 1.309 0.908 0.4981 0.08011 -0.3451 -0.7767 -1.214 -1.657 -2.108 -2.336 
4.641 4.525 4.285 4.024 3.743 3.444 3.126 2.791 2.441 2.076 1.698 1.309 0.908 0.4981 0.08011 -0.3451 -0.7767 -1.214 -1.657 -2.108 -2.336 
4.641 4.525 4.285 4.024 3.743 3.444 3.126 2.791 2.441 2.076 1.698 1.309 0.908 0.4981 0.08011 -0.3451 -0.7767 -1.214 -1.657 -2.108 -2.336 
4.641 4.525 4.285 4.024 3.743 3.444 3.126 2.791 2.441 2.076 1.698 1.309 0.908 0.4981 0.08011 -0.3451 -0.7767 -1.214 -1.657 -2.108 -2.336 
4.641 4.525 4.285 4.024 3.743 3.444 3.126 2.791 2.441 2.076 1.698 1.309 0.908 0.4981 0.08011 -0.3451 -0.7767 -1.214 -1.657 -2.108 -2.336 
4.641 4.525 4.285 4.024 3.743 3.444 3.126 2.791 2.441 2.076 1.698 1.309 0.908 0.4981 0.08011 -0.3451 -0.7767 -1.214 -1.657 -2.108 -2.336 
4.641 4.525 4.285 4.024 3.743 3.444 3.126 2.791 2.441 2.076 1.698 1.309 0.908 0.4981 0.08011 -0.3451 -0.7767 -1.214 -1.657 -2.108 -2.336 
4.641 4.525 4.285 4.024 3.743 3.444 3.126 2.791 2.441 2.076 1.698 1.309 0.908 0.4981 0.08011 -0.3451 -0.7767 -1.214 -1.657 -2.108 -2.336 
4.641 4.525 4.285 4.024 3.743 3.444 3.126 2.791 2.441 2.076 1.698 1.309 0.908 0.4981 0.08011 -0.3451 -0.7767 -1.214 -1.657 -2.108 -2.336 
4.641 4.525 4.285 4.024 3.743 3.444 3.126 2.791 2.441 2.076 1.698 1.309 0.908 0.4981 0.08011 -0.3451 -0.7767 -1.214 -1.657 -2.108 -2.336 
4.641 4.525 4.285 4.024 3.743 3.444 3.126 2.791 2.441 2.076 1.698 1.309 0.908 0.4981 0.08011 -0.3451 -0.7767 -1.214 -1.657 -2.108 -2.336 
4.641 4.525 4.285 4.024 3.743 3.444 3.126 2.791 2.441 2.076 1.698 1.309 0.908 0.4981 0.08011 -0.3451 -0.7767 -1.214 -1.657 -2.108 -2.336 
4.641 4.525 4.285 4.024 3.743 3.444 3.126 2.791 2.441 2.076 1.698 1.309 0.908 0.4981 0.08011 -0.3451 -0.7767 -1.214 -1.657 -2.108 -2.336 
</DataArray>
<DataArray Name="ne" NumberOfComponents="1" format="ascii" type="Float64">
0.5789 0.539 0.4985 0.4583 0.4193 0.382 0.347 0.3144 0.2843 0.2568 0.2317 0.2091 0.1889 0.1715 0.1565 0.1425 0.1311 0.121 0.1064 0.08874 0.08392 
0.5789 0.539 0.4985 0.4583 0.4193 0.382 0.347 0.3144 0.2843 0.2568 0.2317 0.2091 0.1889 0.1715 0.1565 0.1425 0.1311 0.121 0.1064 0.08874 0.08392 
0.5789 0.539 0.4985 0.4583 0.4193 0.382 0.347 0.3144 0.2843 0.2568 0.2317 0.2091 0.1889 0.1715 0.1565 0.1425 0.1311 0.121 0.1064 0.08874 0.08392 
0.5789 0.539 0.4985 0.4583 0.4193 0.382 0.347 0.3144 0.2843 0.2568 0.2317 0.2091 0.1889 0.1715 0.1565 0.1425 0.1311 0.121 0.1064 0.08874 0.08392 
0.5789 0.539 0.4985 0.4583 0.4193 0.382 0.347 0.3144 0.2843 0.2568 0.2317 0.2091 0.1889 0.1715 0.1565 0.1425 0.1311 0.121 0.1064 0.08874 0.08392 
0.5789 0.539 0.4985 0.4583 0.4193 0.382 0.347 0.3144 0.2843 0.2568 0.2317 0.2091 0.1889 0.1715 0.1565 0.1425 0.1311 0.121 0.1064 0.08874 0.08392 
0.5789 0.539 0.4985 0.4583 0.4193 0.382 0.347 0.3144 0.2843 0.2568 0.2317 0.2091 0.1889 0.1715 0.1565 0.1425 0.1311 0.121 0.1064 0.08874 0.08392 
0.5789 0.539 0.4985 0.4583 0.4193 0.382 0.347 0.3144 0.2843 0.2568 0.2317 0.2091 0.1889 0.1715 0.1565 0.1425 0.1311 0.121 0.1064 0.08874 0.08392 
0.5789 0.539 0.4985 0.4583 0.4193 0.382 0.347 0.3144 0.2843 0.2568 0.2317 0.2091 0.1889 0.1715 0.1565 0.1425 0.1311 0.121 0.1064 0.08874 0.08392 
0.5789 0.539 0.4985 0.4583 0.4193 0.382 0.347 0.3144 0.2843 0.2568 0.2317 0.2091 0.1889 0.1715 0.1565 0.1425 0.1311 0.121 0.1064 0.08874 0.08392 
0.5789 0.539 0.4985 0.4583 0.4193 0.382 0.347 0.3144 0.2843 0.2568 0.2317 0.2091 0.1889 0.1715 0.1565 0.1425 0.1311 0.121 0.1064 0.08874 0.08392 
0.5789 0.539 0.4985 0.4583 0.4193 0.382 0.347 0.3144 0.2843 0.2568 0.2317 0.2091 0.1889 0.1715 0.1565 0.1425 0.1311 0.121 0.1064 0.08874 0.08392 
0.5789 0.539 0.4985 0.4583 0.4193 0.382 0.347 0.3144 0.2843 0.2568 0.2317 0.2091 0.1889 0.1715 0.1565 0.1425 0.1311 0.121 0.1064 0.08874 0.08392 
0.5789 0.539 0.4985 0.4583 0.4193 0.382 0.347 0.3144 0.2843 0.2568 0.2317 0.2091 0.1889 0.1715 0.1565 0.1425 0.1311 0.121 0.1064 0.08874 0.08392 
0.5789 0.539 0.4985 0.4583 0.4193 0.382 0.347 0.3144 0.2843 0.2568 0.2317 0.2091 0.1889 0.1715 0.1565 0.1425 0.1311 0.121 0.1064 0.08874 0.08392 
0.5789 0.539 0.4985 0.4583 0.4193 0.382 0.347 0.3144 0.2843 0.2568 0.2317 0.2091 0.1889 0.1715 0.1565 0.1425 0.1311 0.121 0.1064 0.08874 0.08392 
0.5789 0.539 0.4985 0.4583 0.4193 0.382 0.347 0.3144 0.2843 0.2568 0.2317 0.2091 0.1889 0.1715 0.1565 0.1425 0.1311 0.121 0.1064 0.08874 0.08392 
0.5789 0.539 0.4985 0.4583 0.4193 0.382 0.347 0.3144 0.2843 0.2568 0.2317 0.2091 0.1889 0.1715 0.1565 0.1425 0.1311 0.121 0.1064 0.08874 0.08392 
0.5789 0.539 0.4985 0.4583 0.4193 0.382 0.347 0.3144 0.2843 0.2568 0.2317 0.2091 0.1889 0.1715 0.1565 0.1425 0.1311 0.121 0.1064 0.08874 0.08392 
0.5789 0.539 0.4985 0.4583 0.4193 0.382 0.347 0.3144 0.2843 0.2568 0.2317 0.2091 0.1889 0.1715 0.1565 0.1425 0.1311 0.121 0.1064 0.08874 0.08392 
0.5789 0.539 0.4985 0.4583 0.4193 0.382 0.347 0.3144 0.2843 0.2568 0.2317 0.2091 0.1889 0.1715 0.1565 0.1425 0.1311 0.121 0.1064 0.08874 0.08392 
0.5789 0.539 0.4985 0.4583 0.4193 0.382 0.347 0.3144 0.2843 0.2568 0.2317 0.2091 0.1889 0.1715 0.1565 0.1425 0.1311 0.121 0.1064 0.08874 0.08392 
0.5789 0.539 0.4985 0.4583 0.4193 0.382 0.347 0.3144 0.2843 0.2568 0.2317 0.2091 0.1889 0.1715 0.1565 0.1425 0.1311 0.121 0.1064 0.08874 0.08392 
0.5789 0.539 0.4985 0.4583 0.4193 0.382 0.347 0.3144 0.2843 0.2568 0.2317 0.2091 0.1889 0.1715 0.1565 0.1425 0.1311 0.121 0.1064 0.08874 0.08392 
0.5789 0.539 0.4985 0.4583 0.4193 0.382 0.347 0.3144 0.2843 0.2568 0.2317 0.2091 0.1889 0.1715 0.1565 0.1425 0.1311 0.121 0.1064 0.08874 0.08392 
0.5789 0.539 0.4985 0.4583 0.4193 0.382 0.347 0.3144 0.2843 0.2568 0.2317 0.2091 0.1889 0.1715 0.1565 0.1425 0.1311 0.121 0.1064 0.08874 0.08392 
0.5789 0.539 0.4985 0.4583 0.4193 0.382 0.347 0.3144 0.2843 0.2568 0.2317 0.2091 0.1889 0.1715 0.1565 0.1425 0.1311 0.121 0.1064 0.08874 0.08392 
0.5789 0.539 0.4985 0.4583 0.4193 0.382 0.347 0.3144 0.2843 0.2568 0.2317 0.2091 0.1889 0.1715 0.1565 0.1425 0.1311 0.121 0.1064 0.08874 0.08392 
0.5789 0.539 0.4985 0.4583 0.4193 0.382 0.347 0.3144 0.2843 0.2568 0.2317 0.2091 0.1889 0.1715 0.1565 0.1425 0.1311 0.121 0.1064 0.08874 0.08392 
0.5789 0.539 0.4985 0.4583 0.4193 0.382 0.347 0.3144 0.2843 0.2568 0.2317 0.2091 0.1889 0.1715 0.1565 0.1425 0.1311 0.121 0.1064 0.08874 0.08392 
0.5789 0.539 0.4985 0.4583 0.4193 0.382 0.347 0.3144 0.2843 0.2568 0.2317 0.2091 0.1889 0.1715 0.1565 0.1425 0.1311 0.121 0.1064 0.08874 0.08392 
0.5789 0.539 0.4985 0.4583 0.4193 0.382 0.347 0.3144 0.2843 0.2568 0.2317 0.2091 0.1889 0.1715 0.1565 0.1425 0.1311 0.121 0.1064 0.08874 0.08392 
0.5789 0.539 0.4985 0.4583 0.4193 0.382 0.347 0.3144 0.2843 0.2568 0.2317 0.2091 0.1889 0.1715 0.1565 0.1425 0.1311 0.121 0.1064 0.08874 0.08392 
0.5789 0.539 0.4985 0.4583 0.4193 0.382 0.347 0.3144 0.2843 0.2568 0.2317 0.2091 0.1889 0.1715 0.1565 0.1425 0.1311 0.121 0.1064 0.08874 0.08392 
0.5789 0.539 0.4985 0.4583 0.4193 0.382 0.347 0.3144 0.2843 0.2568 0.2317 0.2091 0.1889 0.1715 0.1565 0.1425 0.1311 0.121 0.1064 0.08874 0.08392 
0.5789 0.539 0.4985 0.4583 0.4193 0.382 0.347 0.3144 0.2843 0.2568 0.2317 0.2091 0.1889 0.1715 0.1565 0.1425 0.1311 0.121 0.1064 0.08874 0.08392 
0.5789 0.539 0.4985 0.4583 0.4193 0.382 0.347 0.3144 0.2843 0.2568 0.2317 0.2091 0.1889 0.1715 0.1565 0.1425 0.1311 0.121 0.1064 0.08874 0.08392 
0.5789 0.539 0.4985 0.4583 0.4193 0.382 0.347 0.3144 0.2843 0.2568 0.2317 0.2091 0.1889 0.1715 0.1565 0.1425 0.1311 0.121 0.1064 0.08874 0.08392 
0.5789 0.539 0.4985 0.4583 0.4193 0.382 0.347 0.3144 0.2843 0.2568 0.2317 0.2091 0.1889 0.1715 0.1565 0.1425 0.1311 0.121 0.1064 0.08874 0.08392 
0.5789 0.539 0.4985 0.4583 0.4193 0.382 0.347 0.3144 0.2843 0.2568 0.2317 0.2091 0.1889 0.1715 0.1565 0.1425 0.1311 0.121 0.1064 0.08874 0.08392 
0.5789 0.539 0.4985 0.4583 0.4193 0.382 0.347 0.3144 0.2843 0.2568 0.2317 0.2091 0.1889 0.1715 0.1565 0.1425 0.1311 0.121 0.1064 0.08874 0.08392 
</DataArray>
</PointData>
</Piece>
</ImageData>
</VTKFile>
