<VTKFile type="ImageData">
<ImageData Origin="0 -10 0" Spacing="0.5 0.5 1" WholeExtent="0 20 0 40 0 0">
<Piece Extent="0 20 0 40 0 0">
<PointData>
<DataArray Name="f" NumberOfComponents="1" format="ascii" type="Float64">
1.745e-11 2.883e-13 8.61e-18 1.738e-20 0 0 0 0 0 0 0 0 0 0 0 0 0 0 0 0 0 
6.334e-09 1.353e-10 5.976e-14 5.298e-16 0 0 0 0 0 0 0 0 0 0 0 0 0 0 0 0 0 
1.609e-07 6.899e-09 4.675e-11 1.039e-12 4.645e-17 1.877e-19 0 0 0 0 0 0 0 0 0 0 0 0 0 0 0 
2.448e-06 2.646e-07 1.463e-08 4.191e-10 2.775e-13 4.935e-15 5.01e-17 2.312e-19 0 0 0 0 0 0 0 0 0 0 0 0 0 
1.468e-05 2.835e-06 3.11e-07 1.8e-08 1.884e-10 8.41e-12 2.62e-13 5.327e-15 6.306e-17 3.49e-19 0 0 0 0 0 0 0 0 0 0 0 
4.882e-05 1.648e-05 3.481e-06 4.463e-07 2.867e-08 1.416e-09 8.381e-11 3.501e-12 9.685e-14 1.595e-15 1.273e-17 2.935e-20 0 0 0 0 0 0 0 0 0 
9.432e-05 5.053e-05 1.765e-05 3.937e-06 5.121e-07 4.811e-08 4.33e-09 2.754e-10 1.164e-11 2.936e-13 3.607e-15 1.319e-17 0 0 0 0 0 0 0 0 0 
0.0001161 9.495e-05 5.192e-05 1.868e-05 4.215e-06 6.742e-07 8.841e-08 8.18e-09 5.035e-10 1.863e-11 3.411e-13 1.957e-15 6.326e-19 0 0 0 0 0 0 0 0 
9.416e-05 0.0001156 9.635e-05 5.376e-05 1.956e-05 4.949e-06 9.336e-07 1.238e-07 1.095e-08 5.862e-10 1.587e-11 1.426e-13 9.167e-17 0 0 0 0 0 0 0 0 
5.066e-05 9.294e-05 0.0001165 9.868e-05 5.561e-05 2.138e-05 5.802e-06 1.101e-06 1.393e-07 1.077e-08 4.309e-10 6.076e-12 7.749e-15 0 0 0 0 0 0 0 0 
1.778e-05 4.903e-05 9.243e-05 0.0001178 0.0001009 5.798e-05 2.279e-05 6.209e-06 1.128e-06 1.265e-07 7.504e-09 1.667e-10 4.206e-13 0 0 0 0 0 0 0 0 
3.924e-06 1.656e-05 4.744e-05 9.147e-05 0.0001187 0.000102 5.883e-05 2.324e-05 6.116e-06 1.001e-06 8.869e-08 3.122e-09 1.554e-11 0 0 0 0 0 0 0 0 
5.119e-07 3.421e-06 1.526e-05 4.539e-05 9.046e-05 0.0001179 0.0001017 5.907e-05 2.277e-05 5.497e-06 7.357e-07 4.142e-08 4.053e-10 0 0 0 0 0 0 0 0 
3.575e-08 4.02e-07 2.915e-06 1.389e-05 4.368e-05 8.9e-05 0.0001177 0.0001024 5.877e-05 2.126e-05 4.358e-06 3.974e-07 7.633e-09 0 0 0 0 0 0 0 0 
1.133e-09 2.401e-08 3.024e-07 2.468e-06 1.28e-05 4.281e-05 8.975e-05 0.0001198 0.0001045 5.774e-05 1.849e-05 2.778e-06 1.049e-07 2.45e-19 0 0 0 0 0 0 0 
1.186e-11 6.084e-10 1.464e-08 2.312e-07 2.109e-06 1.254e-05 4.352e-05 9.18e-05 0.0001248 0.0001081 5.544e-05 1.407e-05 1.053e-06 6.798e-16 0 0 0 0 0 0 0 
1.583e-14 4.808e-12 2.443e-10 9.769e-09 1.708e-07 2.078e-06 1.26e-05 4.351e-05 9.524e-05 0.0001335 0.0001136 5.046e-05 7.636e-06 1.26e-12 1.706e-18 0 0 0 0 0 0 
2.709e-19 5.042e-15 5.613e-13 1.412e-10 5.167e-09 1.728e-07 1.955e-06 1.153e-05 4.23e-05 0.0001003 0.0001484 0.0001216 3.896e-05 1.465e-09 4.03e-14 3.157e-18 0 0 0 0 0 
0 0 1.874e-17 3.043e-13 2.496e-11 5.81e-09 1.307e-07 1.391e-06 9.075e-06 3.871e-05 0.0001069 0.000176 0.0001328 9.494e-07 2.786e-10 3.889e-14 8.101e-19 0 0 0 0 
0 0 0 0 2.599e-15 3.931e-11 1.916e-09 4.228e-08 5.665e-07 4.996e-06 2.944e-05 0.0001125 0.0002538 0.0002574 5.33e-07 1.562e-10 6.065e-15 1.685e-20 0 0 0 
0 0 0 0 0 0 0 0 0 1.053e-20 4.093e-15 1.656e-10 1.374e-06 0.003584 0.000244 2.116e-07 1.747e-11 9.193e-17 0 0 0 
0 0 0 0 0 0 0 0 0 0 4.773e-19 2.595e-14 2.849e-10 9.574e-07 0.0002655 0.0001249 3.301e-05 5.657e-06 6.464e-07 4.856e-08 2.633e-09 
0 0 0 0 0 0 0 0 0 0 0 1.721e-18 2.486e-14 1.086e-10 0.0001303 0.0001847 0.0001153 4.236e-05 1.003e-05 1.549e-06 1.704e-07 
0 0 0 0 0 0 0 0 0 0 0 0 8.027e-19 4.539e-15 3.823e-05 0.0001253 0.0001568 0.0001077 4.594e-05 1.263e-05 2.431e-06 
0 0 0 0 0 0 0 0 0 0 0 0 0 6.012e-20 7.467e-06 5.148e-05 0.0001186 0.0001416 0.0001021 4.709e-05 1.501e-05 
0 0 0 0 0 0 0 0 0 0 0 0 0 0 1.023e-06 1.425e-05 5.734e-05 0.0001134 0.0001325 9.834e-05 4.988e-05 
0 0 0 0 0 0 0 0 0 0 0 0 0 0 1.011e-07 2.792e-06 1.896e-05 6.008e-05 0.0001099 0.0001272 9.944e-05 
0 0 0 0 0 0 0 0 0 0 0 0 0 0 7.276e-09 3.962e-07 4.435e-06 2.194e-05 6.129e-05 0.0001078 0.0001264 
0 0 0 0 0 0 0 0 0 0 0 0 0 0 3.816e-10 4.095e-08 7.427e-07 5.626e-06 2.355e-05 6.164e-05 0.0001061 
0 0 0 0 0 0 0 0 0 0 0 0 0 0 1.442e-11 3.058e-09 8.874e-08 1.015e-06 6.271e-06 2.404e-05 5.975e-05 
0 0 0 0 0 0 0 0 0 0 0 0 0 0 3.841e-13 1.615e-10 7.436e-09 1.271e-07 1.146e-06 6.363e-06 2.254e-05 
0 0 0 0 0 0 0 0 0 0 0 0 0 0 6.951e-15 5.817e-12 4.224e-10 1.072e-08 1.4e-07 1.117e-06 5.595e-06 
0 0 0 0 0 0 0 0 0 0 0 0 0 0 8.058e-17 1.347e-13 1.537e-11 5.765e-10 1.088e-08 1.242e-07 8.79e-07 
0 0 0 0 0 0 0 0 0 0 0 0 0 0 5.436e-19 1.822e-15 3.261e-13 1.808e-11 4.944e-10 8.105e-09 8.145e-08 
0 0 0 0 0 0 0 0 0 0 0 0 0 0 0 1.207e-17 3.396e-15 2.809e-13 1.126e-11 2.69e-10 3.92e-09 
0 0 0 0 0 0 0 0 0 0 0 0 0 0 0 2.635e-20 1.178e-17 1.5e-15 9.213e-14 3.361e-12 7.538e-11 
0 0 0 0 0 0 0 0 0 0 0 0 0 0 0 0 0 3.168e-19 5.825e-17 4.981e-15 2.474e-13 
0 0 0 0 0 0 0 0 0 0 0 0 0 0 0 0 0 0 0 2.057e-19 4.544e-17 
0 0 0 0 0 0 0 0 0 0 0 0 0 0 0 0 0 0 0 0 0 
0 0 0 0 0 0 0 0 0 0 0 0 0 0 0 0 0 0 0 0 0 
0 0 0 0 0 0 0 0 0 0 0 0 0 0 0 0 0 0 0 0 0 
</DataArray>
<DataArray Name="E" NumberOfComponents="1" format="ascii" type="Float64">
6.249 5.999 5.499 4.999 4.499 3.999 3.499 2.999 2.499 2 1.5 0.9998 0.4999 0.000468 -0.499 -0.9988 -1.499 -1.999 -2.498 -2.998 -3.248 
6.249 5.999 5.499 4.999 4.499 3.999 3.499 2.999 2.499 2 1.5 0.9998 0.4999 0.000468 -0.499 -0.9988 -1.499 -1.999 -2.498 -2.998 -3.248 
6.249 5.999 5.499 4.999 4.499 3.999 3.499 2.999 2.499 2 1.5 0.9998 0.4999 0.000468 -0.499 -0.9988 -1.499 -1.999 -2.498 -2.998 -3.248 
6.249 5.999 5.499 4.999 4.499 3.999 3.499 2.999 2.499 2 1.5 0.9998 0.4999 0.000468 -0.499 -0.9988 -1.499 -1.999 -2.498 -2.998 -3.248 
6.249 5.999 5.499 4.999 4.499 3.999 3.499 2.999 2.499 2 1.5 0.9998 0.4999 0.000468 -0.499 -0.9988 -1.499 -1.999 -2.498 -2.998 -3.248 
6.249 5.999 5.499 4.999 4.499 3.999 3.499 2.999 2.499 2 1.5 0.9998 0.4999 0.000468 -0.499 -0.9988 -1.499 -1.999 -2.498 -2.998 -3.248 
6.249 5.999 5.499 4.999 4.499 3.999 3.499 2.999 2.499 2 1.5 0.9998 0.4999 0.000468 -0.499 -0.9988 -1.499 -1.999 -2.498 -2.998 -3.248 
6.249 5.999 5.499 4.999 4.499 3.999 3.499 2.999 2.499 2 1.5 0.9998 0.4999 0.000468 -0.499 -0.9988 -1.499 -1.999 -2.498 -2.998 -3.248 
6.249 5.999 5.499 4.999 4.499 3.999 3.499 2.999 2.499 2 1.5 0.9998 0.4999 0.000468 -0.499 -0.9988 -1.499 -1.999 -2.498 -2.998 -3.248 
6.249 5.999 5.499 4.999 4.499 3.999 3.499 2.999 2.499 2 1.5 0.9998 0.4999 0.000468 -0.499 -0.9988 -1.499 -1.999 -2.498 -2.998 -3.248 
6.249 5.999 5.499 4.999 4.499 3.999 3.499 2.999 2.499 2 1.5 0.9998 0.4999 0.000468 -0.499 -0.9988 -1.499 -1.999 -2.498 -2.998 -3.248 
6.249 5.999 5.499 4.999 4.499 3.999 3.499 2.999 2.499 2 1.5 0.9998 0.4999 0.000468 -0.499 -0.9988 -1.499 -1.999 -2.498 -2.998 -3.248 
6.249 5.999 5.499 4.999 4.499 3.999 3.499 2.999 2.499 2 1.5 0.9998 0.4999 0.000468 -0.499 -0.9988 -1.499 -1.999 -2.498 -2.998 -3.248 
6.249 5.999 5.499 4.999 4.499 3.999 3.499 2.999 2.499 2 1.5 0.9998 0.4999 0.000468 -0.499 -0.9988 -1.499 -1.999 -2.498 -2.998 -3.248 
6.249 5.999 5.499 4.999 4.499 3.999 3.499 2.999 2.499 2 1.5 0.9998 0.4999 0.000468 -0.499 -0.9988 -1.499 -1.999 -2.498 -2.998 -3.248 
6.249 5.999 5.499 4.999 4.499 3.999 3.499 2.999 2.499 2 1.5 0.9998 0.4999 0.000468 -0.499 -0.9988 -1.499 -1.999 -2.498 -2.998 -3.248 
6.249 5.999 5.499 4.999 4.499 3.999 3.499 2.999 2.499 2 1.5 0.9998 0.4999 0.000468 -0.499 -0.9988 -1.499 -1.999 -2.498 -2.998 -3.248 
6.249 5.999 5.499 4.999 4.499 3.999 3.499 2.999 2.499 2 1.5 0.9998 0.4999 0.000468 -0.499 -0.9988 -1.499 -1.999 -2.498 -2.998 -3.248 
6.249 5.999 5.499 4.999 4.499 3.999 3.499 2.999 2.499 2 1.5 0.9998 0.4999 0.000468 -0.499 -0.9988 -1.499 -1.999 -2.498 -2.998 -3.248 
6.249 5.999 5.499 4.999 4.499 3.999 3.499 2.999 2.499 2 1.5 0.9998 0.4999 0.000468 -0.499 -0.9988 -1.499 -1.999 -2.498 -2.998 -3.248 
6.249 5.999 5.499 4.999 4.499 3.999 3.499 2.999 2.499 2 1.5 0.9998 0.4999 0.000468 -0.499 -0.9988 -1.499 -1.999 -2.498 -2.998 -3.248 
6.249 5.999 5.499 4.999 4.499 3.999 3.499 2.999 2.499 2 1.5 0.9998 0.4999 0.000468 -0.499 -0.9988 -1.499 -1.999 -2.498 -2.998 -3.248 
6.249 5.999 5.499 4.999 4.499 3.999 3.499 2.999 2.499 2 1.5 0.9998 0.4999 0.000468 -0.499 -0.9988 -1.499 -1.999 -2.498 -2.998 -3.248 
6.249 5.999 5.499 4.999 4.499 3.999 3.499 2.999 2.499 2 1.5 0.9998 0.4999 0.000468 -0.499 -0.9988 -1.499 -1.999 -2.498 -2.998 -3.248 
6.249 5.999 5.499 4.999 4.499 3.999 3.499 2.999 2.499 2 1.5 0.9998 0.4999 0.000468 -0.499 -0.9988 -1.499 -1.999 -2.498 -2.998 -3.248 
6.249 5.999 5.499 4.999 4.499 3.999 3.499 2.999 2.499 2 1.5 0.9998 0.4999 0.000468 -0.499 -0.9988 -1.499 -1.999 -2.498 -2.998 -3.248 
6.249 5.999 5.499 4.999 4.499 3.999 3.499 2.999 2.499 2 1.5 0.9998 0.4999 0.000468 -0.499 -0.9988 -1.499 -1.999 -2.498 -2.998 -3.248 
6.249 5.999 5.499 4.999 4.499 3.999 3.499 2.999 2.499 2 1.5 0.9998 0.4999 0.000468 -0.499 -0.9988 -1.499 -1.999 -2.498 -2.998 -3.248 
6.249 5.999 5.499 4.999 4.499 3.999 3.499 2.999 2.499 2 1.5 0.9998 0.4999 0.000468 -0.499 -0.9988 -1.499 -1.999 -2.498 -2.998 -3.248 
6.249 5.999 5.499 4.999 4.499 3.999 3.499 2.999 2.499 2 1.5 0.9998 0.4999 0.000468 -0.499 -0.9988 -1.499 -1.999 -2.498 -2.998 -3.248 
6.249 5.999 5.499 4.999 4.499 3.999 3.499 2.999 2.499 2 1.5 0.9998 0.4999 0.000468 -0.499 -0.9988 -1.499 -1.999 -2.498 -2.998 -3.248 
6.249 5.999 5.499 4.999 4.499 3.999 3.499 2.999 2.499 2 1.5 0.9998 0.4999 0.000468 -0.499 -0.9988 -1.499 -1.999 -2.498 -2.998 -3.248 
6.249 5.999 5.499 4.999 4.499 3.999 3.499 2.999 2.499 2 1.5 0.9998 0.4999 0.000468 -0.499 -0.9988 -1.499 -1.999 -2.498 -2.998 -3.248 
6.249 5.999 5.499 4.999 4.499 3.999 3.499 2.999 2.499 2 1.5 0.9998 0.4999 0.000468 -0.499 -0.9988 -1.499 -1.999 -2.498 -2.998 -3.248 
6.249 5.999 5.499 4.999 4.499 3.999 3.499 2.999 2.499 2 1.5 0.9998 0.4999 0.000468 -0.499 -0.9988 -1.499 -1.999 -2.498 -2.998 -3.248 
6.249 5.999 5.499 4.999 4.499 3.999 3.499 2.999 2.499 2 1.5 0.9998 0.4999 0.000468 -0.499 -0.9988 -1.499 -1.999 -2.498 -2.998 -3.248 
6.249 5.999 5.499 4.999 4.499 3.999 3.499 2.999 2.499 2 1.5 0.9998 0.4999 0.000468 -0.499 -0.9988 -1.499 -1.999 -2.498 -2.998 -3.248 
6.249 5.999 5.499 4.999 4.499 3.999 3.499 2.999 2.499 2 1.5 0.9998 0.4999 0.000468 -0.499 -0.9988 -1.499 -1.999 -2.498 -2.998 -3.248 
6.249 5.999 5.499 4.999 4.499 3.999 3.499 2.999 2.499 2 1.5 0.9998 0.4999 0.000468 -0.499 -0.9988 -1.499 -1.999 -2.498 -2.998 -3.248 
6.249 5.999 5.499 4.999 4.499 3.999 3.499 2.999 2.499 2 1.5 0.9998 0.4999 0.000468 -0.499 -0.9988 -1.499 -1.999 -2.498 -2.998 -3.248 
6.249 5.999 5.499 4.999 4.499 3.999 3.499 2.999 2.499 2 1.5 0.9998 0.4999 0.000468 -0.499 -0.9988 -1.499 -1.999 -2.498 -2.998 -3.248 
</DataArray>
<DataArray Name="ne" NumberOfComponents="1" format="ascii" type="Float64">
0.0002351 0.0002356 0.0002367 0.0002377 0.000239 0.0002405 0.0002427 0.0002452 0.000248 0.0002512 0.0002547 0.000255 0.0002326 0.001931 0.0003677 0.0002691 0.0002698 0.0002664 0.000263 0.0002599 0.0002596 
0.0002351 0.0002356 0.0002367 0.0002377 0.000239 0.0002405 0.0002427 0.0002452 0.000248 0.0002512 0.0002547 0.000255 0.0002326 0.001931 0.0003677 0.0002691 0.0002698 0.0002664 0.000263 0.0002599 0.0002596 
0.0002351 0.0002356 0.0002367 0.0002377 0.000239 0.0002405 0.0002427 0.0002452 0.000248 0.0002512 0.0002547 0.000255 0.0002326 0.001931 0.0003677 0.0002691 0.0002698 0.0002664 0.000263 0.0002599 0.0002596 
0.0002351 0.0002356 0.0002367 0.0002377 0.000239 0.0002405 0.0002427 0.0002452 0.000248 0.0002512 0.0002547 0.000255 0.0002326 0.001931 0.0003677 0.0002691 0.0002698 0.0002664 0.000263 0.0002599 0.0002596 
0.0002351 0.0002356 0.0002367 0.0002377 0.000239 0.0002405 0.0002427 0.0002452 0.000248 0.0002512 0.0002547 0.000255 0.0002326 0.001931 0.0003677 0.0002691 0.0002698 0.0002664 0.000263 0.0002599 0.0002596 
0.0002351 0.0002356 0.0002367 0.0002377 0.000239 0.0002405 0.0002427 0.0002452 0.000248 0.0002512 0.0002547 0.000255 0.0002326 0.001931 0.0003677 0.0002691 0.0002698 0.0002664 0.000263 0.0002599 0.0002596 
0.0002351 0.0002356 0.0002367 0.0002377 0.000239 0.0002405 0.0002427 0.0002452 0.000248 0.0002512 0.0002547 0.000255 0.0002326 0.001931 0.0003677 0.0002691 0.0002698 0.0002664 0.000263 0.0002599 0.0002596 
0.0002351 0.0002356 0.0002367 0.0002377 0.000239 0.0002405 0.0002427 0.0002452 0.000248 0.0002512 0.0002547 0.000255 0.0002326 0.001931 0.0003677 0.0002691 0.0002698 0.0002664 0.000263 0.0002599 0.0002596 
0.0002351 0.0002356 0.0002367 0.0002377 0.000239 0.0002405 0.0002427 0.0002452 0.000248 0.0002512 0.0002547 0.000255 0.0002326 0.001931 0.0003677 0.0002691 0.0002698 0.0002664 0.000263 0.0002599 0.0002596 
0.0002351 0.0002356 0.0002367 0.0002377 0.000239 0.0002405 0.0002427 0.0002452 0.000248 0.0002512 0.0002547 0.000255 0.0002326 0.001931 0.0003677 0.0002691 0.0002698 0.0002664 0.000263 0.0002599 0.0002596 
0.0002351 0.0002356 0.0002367 0.0002377 0.000239 0.0002405 0.0002427 0.0002452 0.000248 0.0002512 0.0002547 0.000255 0.0002326 0.001931 0.0003677 0.0002691 0.0002698 0.0002664 0.000263 0.0002599 0.0002596 
0.0002351 0.0002356 0.0002367 0.0002377 0.000239 0.0002405 0.0002427 0.0002452 0.000248 0.0002512 0.0002547 0.000255 0.0002326 0.001931 0.0003677 0.0002691 0.0002698 0.0002664 0.000263 0.0002599 0.0002596 
0.0002351 0.0002356 0.0002367 0.0002377 0.000239 0.0002405 0.0002427 0.0002452 0.000248 0.0002512 0.0002547 0.000255 0.0002326 0.001931 0.0003677 0.0002691 0.0002698 0.0002664 0.000263 0.0002599 0.0002596 
0.0002351 0.0002356 0.0002367 0.0002377 0.000239 0.0002405 0.0002427 0.0002452 0.000248 0.0002512 0.0002547 0.000255 0.0002326 0.001931 0.0003677 0.0002691 0.0002698 0.0002664 0.000263 0.0002599 0.0002596 
0.0002351 0.0002356 0.0002367 0.0002377 0.000239 0.0002405 0.0002427 0.0002452 0.000248 0.0002512 0.0002547 0.000255 0.0002326 0.001931 0.0003677 0.0002691 0.0002698 0.0002664 0.000263 0.0002599 0.0002596 
0.0002351 0.0002356 0.0002367 0.0002377 0.000239 0.0002405 0.0002427 0.0002452 0.000248 0.0002512 0.0002547 0.000255 0.0002326 0.001931 0.0003677 0.0002691 0.0002698 0.0002664 0.000263 0.0002599 0.0002596 
0.0002351 0.0002356 0.0002367 0.0002377 0.000239 0.0002405 0.0002427 0.0002452 0.000248 0.0002512 0.0002547 0.000255 0.0002326 0.001931 0.0003677 0.0002691 0.0002698 0.0002664 0.000263 0.0002599 0.0002596 
0.0002351 0.0002356 0.0002367 0.0002377 0.000239 0.0002405 0.0002427 0.0002452 0.000248 0.0002512 0.0002547 0.000255 0.0002326 0.001931 0.0003677 0.0002691 0.0002698 0.0002664 0.000263 0.0002599 0.0002596 
0.0002351 0.0002356 0.0002367 0.0002377 0.000239 0.0002405 0.0002427 0.0002452 0.000248 0.0002512 0.0002547 0.000255 0.0002326 0.001931 0.0003677 0.0002691 0.0002698 0.0002664 0.000263 0.0002599 0.0002596 
0.0002351 0.0002356 0.0002367 0.0002377 0.000239 0.0002405 0.0002427 0.0002452 0.000248 0.0002512 0.0002547 0.000255 0.0002326 0.001931 0.0003677 0.0002691 0.0002698 0.0002664 0.000263 0.0002599 0.0002596 
0.0002351 0.0002356 0.0002367 0.0002377 0.000239 0.0002405 0.0002427 0.0002452 0.000248 0.0002512 0.0002547 0.000255 0.0002326 0.001931 0.0003677 0.0002691 0.0002698 0.0002664 0.000263 0.0002599 0.0002596 
0.0002351 0.0002356 0.0002367 0.0002377 0.000239 0.0002405 0.0002427 0.0002452 0.000248 0.0002512 0.0002547 0.000255 0.0002326 0.001931 0.0003677 0.0002691 0.0002698 0.0002664 0.000263 0.0002599 0.0002596 
0.0002351 0.0002356 0.0002367 0.0002377 0.000239 0.0002405 0.0002427 0.0002452 0.000248 0.0002512 0.0002547 0.000255 0.0002326 0.001931 0.0003677 0.0002691 0.0002698 0.0002664 0.000263 0.0002599 0.0002596 
0.0002351 0.0002356 0.0002367 0.0002377 0.000239 0.0002405 0.0002427 0.0002452 0.000248 0.0002512 0.0002547 0.000255 0.0002326 0.001931 0.0003677 0.0002691 0.0002698 0.0002664 0.000263 0.0002599 0.0002596 
0.0002351 0.0002356 0.0002367 0.0002377 0.000239 0.0002405 0.0002427 0.0002452 0.000248 0.0002512 0.0002547 0.000255 0.0002326 0.001931 0.0003677 0.0002691 0.0002698 0.0002664 0.000263 0.0002599 0.0002596 
0.0002351 0.0002356 0.0002367 0.0002377 0.000239 0.0002405 0.0002427 0.0002452 0.000248 0.0002512 0.0002547 0.000255 0.0002326 0.001931 0.0003677 0.0002691 0.0002698 0.0002664 0.000263 0.0002599 0.0002596 
0.0002351 0.0002356 0.0002367 0.0002377 0.000239 0.0002405 0.0002427 0.0002452 0.000248 0.0002512 0.0002547 0.000255 0.0002326 0.001931 0.0003677 0.0002691 0.0002698 0.0002664 0.000263 0.0002599 0.0002596 
0.0002351 0.0002356 0.0002367 0.0002377 0.000239 0.0002405 0.0002427 0.0002452 0.000248 0.0002512 0.0002547 0.000255 0.0002326 0.001931 0.0003677 0.0002691 0.0002698 0.0002664 0.000263 0.0002599 0.0002596 
0.0002351 0.0002356 0.0002367 0.0002377 0.000239 0.0002405 0.0002427 0.0002452 0.000248 0.0002512 0.0002547 0.000255 0.0002326 0.001931 0.0003677 0.0002691 0.0002698 0.0002664 0.000263 0.0002599 0.0002596 
0.0002351 0.0002356 0.0002367 0.0002377 0.000239 0.0002405 0.0002427 0.0002452 0.000248 0.0002512 0.0002547 0.000255 0.0002326 0.001931 0.0003677 0.0002691 0.0002698 0.0002664 0.000263 0.0002599 0.0002596 
0.0002351 0.0002356 0.0002367 0.0002377 0.000239 0.0002405 0.0002427 0.0002452 0.000248 0.0002512 0.0002547 0.000255 0.0002326 0.001931 0.0003677 0.0002691 0.0002698 0.0002664 0.000263 0.0002599 0.0002596 
0.0002351 0.0002356 0.0002367 0.0002377 0.000239 0.0002405 0.0002427 0.0002452 0.000248 0.0002512 0.0002547 0.000255 0.0002326 0.001931 0.0003677 0.0002691 0.0002698 0.0002664 0.000263 0.0002599 0.0002596 
0.0002351 0.0002356 0.0002367 0.0002377 0.000239 0.0002405 0.0002427 0.0002452 0.000248 0.0002512 0.0002547 0.000255 0.0002326 0.001931 0.0003677 0.0002691 0.0002698 0.0002664 0.000263 0.0002599 0.0002596 
0.0002351 0.0002356 0.0002367 0.0002377 0.000239 0.0002405 0.0002427 0.0002452 0.000248 0.0002512 0.0002547 0.000255 0.0002326 0.001931 0.0003677 0.0002691 0.0002698 0.0002664 0.000263 0.0002599 0.0002596 
0.0002351 0.0002356 0.0002367 0.0002377 0.000239 0.0002405 0.0002427 0.0002452 0.000248 0.0002512 0.0002547 0.000255 0.0002326 0.001931 0.0003677 0.0002691 0.0002698 0.0002664 0.000263 0.0002599 0.0002596 
0.0002351 0.0002356 0.0002367 0.0002377 0.000239 0.0002405 0.0002427 0.0002452 0.000248 0.0002512 0.0002547 0.000255 0.0002326 0.001931 0.0003677 0.0002691 0.0002698 0.0002664 0.000263 0.0002599 0.0002596 
0.0002351 0.0002356 0.0002367 0.0002377 0.000239 0.0002405 0.0002427 0.0002452 0.000248 0.0002512 0.0002547 0.000255 0.0002326 0.001931 0.0003677 0.0002691 0.0002698 0.0002664 0.000263 0.0002599 0.0002596 
0.0002351 0.0002356 0.0002367 0.0002377 0.000239 0.0002405 0.0002427 0.0002452 0.000248 0.0002512 0.0002547 0.000255 0.0002326 0.001931 0.0003677 0.0002691 0.0002698 0.0002664 0.000263 0.0002599 0.0002596 
0.0002351 0.0002356 0.0002367 0.0002377 0.000239 0.0002405 0.0002427 0.0002452 0.000248 0.0002512 0.0002547 0.000255 0.0002326 0.001931 0.0003677 0.0002691 0.0002698 0.0002664 0.000263 0.0002599 0.0002596 
0.0002351 0.0002356 0.0002367 0.0002377 0.000239 0.0002405 0.0002427 0.0002452 0.000248 0.0002512 0.0002547 0.000255 0.0002326 0.001931 0.0003677 0.0002691 0.0002698 0.0002664 0.000263 0.0002599 0.0002596 
0.0002351 0.0002356 0.0002367 0.0002377 0.000239 0.0002405 0.0002427 0.0002452 0.000248 0.0002512 0.0002547 0.000255 0.0002326 0.001931 0.0003677 0.0002691 0.0002698 0.0002664 0.000263 0.0002599 0.0002596 
</DataArray>
</PointData>
</Piece>
</ImageData>
</VTKFile>
