<VTKFile type="ImageData">
<ImageData Origin="0 -10 0" Spacing="0.5 0.5 1" WholeExtent="0 20 0 40 0 0">
<Piece Extent="0 20 0 40 0 0">
<PointData>
<DataArray Name="f" NumberOfComponents="1" format="ascii" type="Float64">
0.006743 0.006754 0.00676 0.006765 0.006769 0.006772 0.006775 0.006776 0.006778 0.006778 0.006779 0.006779 0.006778 0.006777 0.006775 0.006772 0.006769 0.006765 0.00676 0.006757 0.006743 
0.003847 0.003854 0.003857 0.00386 0.003861 0.003863 0.003863 0.003864 0.003864 0.003865 0.003864 0.003865 0.003864 0.003865 0.003864 0.003864 0.003862 0.003861 0.003856 0.003856 0.003847 
0.00209 0.002095 0.002097 0.002099 0.002099 0.0021 0.002099 0.0021 0.002098 0.002099 0.002097 0.002098 0.002096 0.002097 0.002096 0.002097 0.002095 0.002096 0.002093 0.002094 0.00209 
0.001078 0.001083 0.001084 0.001086 0.001086 0.001088 0.001087 0.001088 0.001086 0.001087 0.001085 0.001086 0.001083 0.001084 0.001082 0.001083 0.001081 0.001081 0.00108 0.00108 0.001078 
0.0005287 0.0005311 0.0005317 0.0005334 0.0005336 0.0005351 0.0005348 0.0005361 0.0005353 0.0005364 0.000535 0.0005358 0.000534 0.0005347 0.0005327 0.0005333 0.0005313 0.0005317 0.00053 0.0005301 0.0005287 
0.0002486 0.0002493 0.0002497 0.0002501 0.0002505 0.0002508 0.0002511 0.0002515 0.0002516 0.0002519 0.0002519 0.0002521 0.0002519 0.000252 0.0002515 0.0002515 0.0002507 0.0002507 0.0002497 0.0002497 0.0002486 
0.000115 0.0001156 0.000116 0.0001163 0.0001165 0.0001167 0.0001168 0.0001168 0.0001167 0.0001166 0.0001165 0.0001163 0.0001162 0.000116 0.0001158 0.0001157 0.0001155 0.0001154 0.0001152 0.0001152 0.000115 
5.756e-05 5.826e-05 5.9e-05 5.986e-05 6.075e-05 6.161e-05 6.234e-05 6.289e-05 6.32e-05 6.324e-05 6.301e-05 6.257e-05 6.193e-05 6.12e-05 6.038e-05 5.963e-05 5.886e-05 5.832e-05 5.78e-05 5.76e-05 5.756e-05 
4.422e-05 4.307e-05 4.331e-05 4.419e-05 4.566e-05 4.758e-05 4.98e-05 5.208e-05 5.42e-05 5.594e-05 5.712e-05 5.765e-05 5.747e-05 5.668e-05 5.532e-05 5.365e-05 5.16e-05 4.976e-05 4.751e-05 4.629e-05 4.422e-05 
7.148e-05 6.461e-05 6.178e-05 6.021e-05 6.006e-05 6.138e-05 6.413e-05 6.809e-05 7.292e-05 7.813e-05 8.317e-05 8.75e-05 9.068e-05 9.243e-05 9.261e-05 9.144e-05 8.885e-05 8.572e-05 8.113e-05 7.796e-05 7.148e-05 
0.0001592 0.000143 0.0001336 0.0001254 0.0001191 0.0001151 0.0001139 0.0001158 0.0001208 0.0001286 0.0001385 0.0001495 0.0001603 0.0001698 0.0001769 0.0001811 0.000182 0.0001803 0.0001753 0.0001706 0.0001592 
0.0003485 0.0003239 0.0003056 0.0002871 0.0002694 0.0002535 0.0002406 0.0002319 0.0002286 0.0002313 0.0002406 0.0002557 0.0002755 0.0002975 0.0003192 0.0003381 0.000352 0.0003602 0.000362 0.0003602 0.0003485 
0.000699 0.0006782 0.0006531 0.0006244 0.0005934 0.0005612 0.0005297 0.0005005 0.0004762 0.0004592 0.0004522 0.0004571 0.0004748 0.0005045 0.000543 0.0005853 0.0006259 0.0006596 0.0006837 0.0006971 0.000699 
0.001287 0.0013 0.001278 0.001247 0.001208 0.001162 0.001111 0.001058 0.001004 0.0009533 0.0009104 0.0008804 0.000869 0.0008806 0.0009171 0.0009757 0.001049 0.001125 0.001194 0.001246 0.001287 
0.002214 0.002313 0.002313 0.002295 0.002262 0.002215 0.002156 0.002085 0.002005 0.001919 0.001831 0.001747 0.001677 0.00163 0.001619 0.001652 0.001731 0.001846 0.001978 0.002097 0.002214 
0.003631 0.003882 0.003929 0.00395 0.003946 0.003919 0.003871 0.003801 0.003713 0.003606 0.003483 0.003349 0.003211 0.00308 0.002975 0.002916 0.002929 0.003026 0.003198 0.003401 0.003631 
0.005789 0.006251 0.006372 0.006455 0.006505 0.006524 0.006512 0.00647 0.006398 0.006297 0.006167 0.006009 0.005826 0.005624 0.005417 0.005228 0.005094 0.005065 0.005183 0.005433 0.005789 
0.009092 0.009774 0.009985 0.01015 0.01027 0.01035 0.0104 0.01041 0.01038 0.01032 0.01021 0.01007 0.009877 0.009648 0.009381 0.009088 0.008796 0.008561 0.008481 0.008649 0.009092 
0.01411 0.01493 0.01523 0.01547 0.01566 0.01582 0.01594 0.01602 0.01605 0.01605 0.01599 0.01589 0.01573 0.01552 0.01525 0.01492 0.01454 0.01414 0.01379 0.01369 0.01411 
0.02148 0.0223 0.02265 0.02294 0.02318 0.0234 0.02358 0.02372 0.02382 0.02389 0.0239 0.02386 0.02376 0.0236 0.02337 0.02306 0.02268 0.02222 0.02171 0.02126 0.02148 
0.03177 0.03241 0.03275 0.03305 0.03331 0.03355 0.03376 0.03395 0.0341 0.03422 0.0343 0.03432 0.03429 0.0342 0.03403 0.03378 0.03345 0.03302 0.0325 0.03187 0.03177 
0.04521 0.04558 0.04586 0.04611 0.04635 0.04657 0.04678 0.04698 0.04716 0.04731 0.04743 0.04751 0.04753 0.0475 0.0474 0.04723 0.04696 0.0466 0.04614 0.04556 0.04521 
0.06151 0.06172 0.0619 0.06208 0.06226 0.06244 0.06262 0.0628 0.06297 0.06313 0.06326 0.06337 0.06344 0.06346 0.06342 0.06331 0.06312 0.06284 0.06246 0.06196 0.06151 
0.08008 0.08019 0.0803 0.08042 0.08054 0.08067 0.0808 0.08094 0.08108 0.08121 0.08134 0.08145 0.08154 0.08159 0.08159 0.08154 0.08141 0.08121 0.08092 0.08052 0.08008 
0.09987 0.09995 0.1 0.1001 0.1002 0.1002 0.1003 0.1004 0.1005 0.1006 0.1007 0.1008 0.1009 0.101 0.101 0.101 0.1009 0.1008 0.1005 0.1002 0.09987 
0.1195 0.1195 0.1196 0.1196 0.1196 0.1197 0.1197 0.1198 0.1198 0.1199 0.12 0.1201 0.1201 0.1202 0.1202 0.1202 0.1202 0.1201 0.12 0.1198 0.1195 
0.1371 0.1372 0.1372 0.1372 0.1372 0.1372 0.1373 0.1373 0.1373 0.1374 0.1374 0.1375 0.1375 0.1376 0.1376 0.1376 0.1376 0.1376 0.1375 0.1373 0.1371 
0.1511 0.1511 0.1511 0.1511 0.1511 0.1511 0.1511 0.1511 0.1512 0.1512 0.1512 0.1513 0.1513 0.1513 0.1514 0.1514 0.1514 0.1514 0.1513 0.1512 0.1511 
0.1598 0.1598 0.1598 0.1598 0.1598 0.1598 0.1598 0.1598 0.1598 0.1598 0.1598 0.1598 0.1599 0.1599 0.1599 0.1599 0.16 0.1599 0.1599 0.1599 0.1598 
0.1622 0.1622 0.1622 0.1622 0.1621 0.1621 0.1621 0.1621 0.1621 0.1621 0.1621 0.1622 0.1622 0.1622 0.1622 0.1622 0.1623 0.1623 0.1623 0.1623 0.1622 
0.158 0.158 0.1579 0.1579 0.1579 0.1579 0.1579 0.1578 0.1579 0.1579 0.1579 0.1579 0.1579 0.1579 0.1579 0.1579 0.1579 0.158 0.158 0.158 0.158 
0.1476 0.1476 0.1475 0.1475 0.1475 0.1475 0.1475 0.1474 0.1474 0.1474 0.1474 0.1474 0.1474 0.1475 0.1475 0.1475 0.1475 0.1475 0.1475 0.1476 0.1476 
0.1323 0.1322 0.1322 0.1321 0.1321 0.1321 0.1321 0.1321 0.132 0.132 0.132 0.132 0.132 0.132 0.132 0.132 0.132 0.1321 0.1321 0.1322 0.1323 
0.1136 0.1135 0.1135 0.1134 0.1134 0.1134 0.1134 0.1133 0.1133 0.1133 0.1133 0.1133 0.1133 0.1133 0.1133 0.1133 0.1133 0.1133 0.1134 0.1134 0.1136 
0.09342 0.09334 0.09334 0.09328 0.09327 0.09322 0.09322 0.09317 0.09317 0.09313 0.09314 0.0931 0.09312 0.09309 0.09312 0.09312 0.09316 0.09318 0.09324 0.09329 0.09342 
0.07357 0.07349 0.07349 0.07342 0.07343 0.07336 0.07337 0.07331 0.07333 0.07328 0.07331 0.07326 0.0733 0.07327 0.07331 0.0733 0.07335 0.07336 0.07342 0.07346 0.07357 
0.05542 0.05534 0.05535 0.05528 0.0553 0.05523 0.05526 0.0552 0.05524 0.05519 0.05522 0.05519 0.05522 0.0552 0.05523 0.05522 0.05526 0.05526 0.05531 0.05534 0.05542 
0.03992 0.03986 0.03987 0.03982 0.03983 0.0398 0.03981 0.03978 0.03979 0.03977 0.03978 0.03977 0.03977 0.03977 0.03977 0.03978 0.03979 0.0398 0.03982 0.03985 0.03992 
0.02749 0.02745 0.02746 0.02743 0.02743 0.02741 0.02741 0.0274 0.02739 0.02738 0.02737 0.02737 0.02736 0.02736 0.02736 0.02737 0.02738 0.02739 0.02741 0.02744 0.02749 
0.01809 0.01806 0.01806 0.01804 0.01803 0.01802 0.018 0.018 0.01799 0.01798 0.01798 0.01798 0.01798 0.01799 0.01799 0.018 0.01801 0.01802 0.01804 0.01806 0.01809 
0.01134 0.01131 0.01131 0.0113 0.01129 0.01129 0.01129 0.01129 0.01129 0.01129 0.01129 0.0113 0.0113 0.01131 0.01131 0.01131 0.01132 0.01132 0.01133 0.01133 0.01134 
</DataArray>
<DataArray Name="E" NumberOfComponents="1" format="ascii" type="Float64">
1.522 1.52 1.517 1.514 1.511 1.509 1.507 1.505 1.503 1.502 1.5 1.499 1.497 1.496 1.494 1.492 1.489 1.486 1.482 1.478 1.476 
1.522 1.52 1.517 1.514 1.511 1.509 1.507 1.505 1.503 1.502 1.5 1.499 1.497 1.496 1.494 1.492 1.489 1.486 1.482 1.478 1.476 
1.522 1.52 1.517 1.514 1.511 1.509 1.507 1.505 1.503 1.502 1.5 1.499 1.497 1.496 1.494 1.492 1.489 1.486 1.482 1.478 1.476 
1.522 1.52 1.517 1.514 1.511 1.509 1.507 1.505 1.503 1.502 1.5 1.499 1.497 1.496 1.494 1.492 1.489 1.486 1.482 1.478 1.476 
1.522 1.52 1.517 1.514 1.511 1.509 1.507 1.505 1.503 1.502 1.5 1.499 1.497 1.496 1.494 1.492 1.489 1.486 1.482 1.478 1.476 
1.522 1.52 1.517 1.514 1.511 1.509 1.507 1.505 1.503 1.502 1.5 1.499 1.497 1.496 1.494 1.492 1.489 1.486 1.482 1.478 1.476 
1.522 1.52 1.517 1.514 1.511 1.509 1.507 1.505 1.503 1.502 1.5 1.499 1.497 1.496 1.494 1.492 1.489 1.486 1.482 1.478 1.476 
1.522 1.52 1.517 1.514 1.511 1.509 1.507 1.505 1.503 1.502 1.5 1.499 1.497 1.496 1.494 1.492 1.489 1.486 1.482 1.478 1.476 
1.522 1.52 1.517 1.514 1.511 1.509 1.507 1.505 1.503 1.502 1.5 1.499 1.497 1.496 1.494 1.492 1.489 1.486 1.482 1.478 1.476 
1.522 1.52 1.517 1.514 1.511 1.509 1.507 1.505 1.503 1.502 1.5 1.499 1.497 1.496 1.494 1.492 1.489 1.486 1.482 1.478 1.476 
1.522 1.52 1.517 1.514 1.511 1.509 1.507 1.505 1.503 1.502 1.5 1.499 1.497 1.496 1.494 1.492 1.489 1.486 1.482 1.478 1.476 
1.522 1.52 1.517 1.514 1.511 1.509 1.507 1.505 1.503 1.502 1.5 1.499 1.497 1.496 1.494 1.492 1.489 1.486 1.482 1.478 1.476 
1.522 1.52 1.517 1.514 1.511 1.509 1.507 1.505 1.503 1.502 1.5 1.499 1.497 1.496 1.494 1.492 1.489 1.486 1.482 1.478 1.476 
1.522 1.52 1.517 1.514 1.511 1.509 1.507 1.505 1.503 1.502 1.5 1.499 1.497 1.496 1.494 1.492 1.489 1.486 1.482 1.478 1.476 
1.522 1.52 1.517 1.514 1.511 1.509 1.507 1.505 1.503 1.502 1.5 1.499 1.497 1.496 1.494 1.492 1.489 1.486 1.482 1.478 1.476 
1.522 1.52 1.517 1.514 1.511 1.509 1.507 1.505 1.503 1.502 1.5 1.499 1.497 1.496 1.494 1.492 1.489 1.486 1.482 1.478 1.476 
1.522 1.52 1.517 1.514 1.511 1.509 1.507 1.505 1.503 1.502 1.5 1.499 1.497 1.496 1.494 1.492 1.489 1.486 1.482 1.478 1.476 
1.522 1.52 1.517 1.514 1.511 1.509 1.507 1.505 1.503 1.502 1.5 1.499 1.497 1.496 1.494 1.492 1.489 1.486 1.482 1.478 1.476 
1.522 1.52 1.517 1.514 1.511 1.509 1.507 1.505 1.503 1.502 1.5 1.499 1.497 1.496 1.494 1.492 1.489 1.486 1.482 1.478 1.476 
1.522 1.52 1.517 1.514 1.511 1.509 1.507 1.505 1.503 1.502 1.5 1.499 1.497 1.496 1.494 1.492 1.489 1.486 1.482 1.478 1.476 
1.522 1.52 1.517 1.514 1.511 1.509 1.507 1.505 1.503 1.502 1.5 1.499 1.497 1.496 1.494 1.492 1.489 1.486 1.482 1.478 1.476 
1.522 1.52 1.517 1.514 1.511 1.509 1.507 1.505 1.503 1.502 1.5 1.499 1.497 1.496 1.494 1.492 1.489 1.486 1.482 1.478 1.476 
1.522 1.52 1.517 1.514 1.511 1.509 1.507 1.505 1.503 1.502 1.5 1.499 1.497 1.496 1.494 1.492 1.489 1.486 1.482 1.478 1.476 
1.522 1.52 1.517 1.514 1.511 1.509 1.507 1.505 1.503 1.502 1.5 1.499 1.497 1.496 1.494 1.492 1.489 1.486 1.482 1.478 1.476 
1.522 1.52 1.517 1.514 1.511 1.509 1.507 1.505 1.503 1.502 1.5 1.499 1.497 1.496 1.494 1.492 1.489 1.486 1.482 1.478 1.476 
1.522 1.52 1.517 1.514 1.511 1.509 1.507 1.505 1.503 1.502 1.5 1.499 1.497 1.496 1.494 1.492 1.489 1.486 1.482 1.478 1.476 
1.522 1.52 1.517 1.514 1.511 1.509 1.507 1.505 1.503 1.502 1.5 1.499 1.497 1.496 1.494 1.492 1.489 1.486 1.482 1.478 1.476 
1.522 1.52 1.517 1.514 1.511 1.509 1.507 1.505 1.503 1.502 1.5 1.499 1.497 1.496 1.494 1.492 1.489 1.486 1.482 1.478 1.476 
1.522 1.52 1.517 1.514 1.511 1.509 1.507 1.505 1.503 1.502 1.5 1.499 1.497 1.496 1.494 1.492 1.489 1.486 1.482 1.478 1.476 
1.522 1.52 1.517 1.514 1.511 1.509 1.507 1.505 1.503 1.502 1.5 1.499 1.497 1.496 1.494 1.492 1.489 1.486 1.482 1.478 1.476 
1.522 1.52 1.517 1.514 1.511 1.509 1.507 1.505 1.503 1.502 1.5 1.499 1.497 1.496 1.494 1.492 1.489 1.486 1.482 1.478 1.476 
1.522 1.52 1.517 1.514 1.511 1.509 1.507 1.505 1.503 1.502 1.5 1.499 1.497 1.496 1.494 1.492 1.489 1.486 1.482 1.478 1.476 
1.522 1.52 1.517 1.514 1.511 1.509 1.507 1.505 1.503 1.502 1.5 1.499 1.497 1.496 1.494 1.492 1.489 1.486 1.482 1.478 1.476 
1.522 1.52 1.517 1.514 1.511 1.509 1.507 1.505 1.503 1.502 1.5 1.499 1.497 1.496 1.494 1.492 1.489 1.486 1.482 1.478 1.476 
1.522 1.52 1.517 1.514 1.511 1.509 1.507 1.505 1.503 1.502 1.5 1.499 1.497 1.496 1.494 1.492 1.489 1.486 1.482 1.478 1.476 
1.522 1.52 1.517 1.514 1.511 1.509 1.507 1.505 1.503 1.502 1.5 1.499 1.497 1.496 1.494 1.492 1.489 1.486 1.482 1.478 1.476 
1.522 1.52 1.517 1.514 1.511 1.509 1.507 1.505 1.503 1.502 1.5 1.499 1.497 1.496 1.494 1.492 1.489 1.486 1.482 1.478 1.476 
1.522 1.52 1.517 1.514 1.511 1.509 1.507 1.505 1.503 1.502 1.5 1.499 1.497 1.496 1.494 1.492 1.489 1.486 1.482 1.478 1.476 
1.522 1.52 1.517 1.514 1.511 1.509 1.507 1.505 1.503 1.502 1.5 1.499 1.497 1.496 1.494 1.492 1.489 1.486 1.482 1.478 1.476 
1.522 1.52 1.517 1.514 1.511 1.509 1.507 1.505 1.503 1.502 1.5 1.499 1.497 1.496 1.494 1.492 1.489 1.486 1.482 1.478 1.476 
1.522 1.52 1.517 1.514 1.511 1.509 1.507 1.505 1.503 1.502 1.5 1.499 1.497 1.496 1.494 1.492 1.489 1.486 1.482 1.478 1.476 
</DataArray>
<DataArray Name="ne" NumberOfComponents="1" format="ascii" type="Float64">
0.9908 0.9929 0.9936 0.9944 0.995 0.9956 0.996 0.9965 0.9967 0.997 0.9971 0.9971 0.9969 0.9966 0.996 0.9953 0.9943 0.9932 0.9919 0.9908 0.9905 
0.9908 0.9929 0.9936 0.9944 0.995 0.9956 0.996 0.9965 0.9967 0.997 0.9971 0.9971 0.9969 0.9966 0.996 0.9953 0.9943 0.9932 0.9919 0.9908 0.9905 
0.9908 0.9929 0.9936 0.9944 0.995 0.9956 0.996 0.9965 0.9967 0.997 0.9971 0.9971 0.9969 0.9966 0.996 0.9953 0.9943 0.9932 0.9919 0.9908 0.9905 
0.9908 0.9929 0.9936 0.9944 0.995 0.9956 0.996 0.9965 0.9967 0.997 0.9971 0.9971 0.9969 0.9966 0.996 0.9953 0.9943 0.9932 0.9919 0.9908 0.9905 
0.9908 0.9929 0.9936 0.9944 0.995 0.9956 0.996 0.9965 0.9967 0.997 0.9971 0.9971 0.9969 0.9966 0.996 0.9953 0.9943 0.9932 0.9919 0.9908 0.9905 
0.9908 0.9929 0.9936 0.9944 0.995 0.9956 0.996 0.9965 0.9967 0.997 0.9971 0.9971 0.9969 0.9966 0.996 0.9953 0.9943 0.9932 0.9919 0.9908 0.9905 
0.9908 0.9929 0.9936 0.9944 0.995 0.9956 0.996 0.9965 0.9967 0.997 0.9971 0.9971 0.9969 0.9966 0.996 0.9953 0.9943 0.9932 0.9919 0.9908 0.9905 
0.9908 0.9929 0.9936 0.9944 0.995 0.9956 0.996 0.9965 0.9967 0.997 0.9971 0.9971 0.9969 0.9966 0.996 0.9953 0.9943 0.9932 0.9919 0.9908 0.9905 
0.9908 0.9929 0.9936 0.9944 0.995 0.9956 0.996 0.9965 0.9967 0.997 0.9971 0.9971 0.9969 0.9966 0.996 0.9953 0.9943 0.9932 0.9919 0.9908 0.9905 
0.9908 0.9929 0.9936 0.9944 0.995 0.9956 0.996 0.9965 0.9967 0.997 0.9971 0.9971 0.9969 0.9966 0.996 0.9953 0.9943 0.9932 0.9919 0.9908 0.9905 
0.9908 0.9929 0.9936 0.9944 0.995 0.9956 0.996 0.9965 0.9967 0.997 0.9971 0.9971 0.9969 0.9966 0.996 0.9953 0.9943 0.9932 0.9919 0.9908 0.9905 
0.9908 0.9929 0.9936 0.9944 0.995 0.9956 0.996 0.9965 0.9967 0.997 0.9971 0.9971 0.9969 0.9966 0.996 0.9953 0.9943 0.9932 0.9919 0.9908 0.9905 
0.9908 0.9929 0.9936 0.9944 0.995 0.9956 0.996 0.9965 0.9967 0.997 0.9971 0.9971 0.9969 0.9966 0.996 0.9953 0.9943 0.9932 0.9919 0.9908 0.9905 
0.9908 0.9929 0.9936 0.9944 0.995 0.9956 0.996 0.9965 0.9967 0.997 0.9971 0.9971 0.9969 0.9966 0.996 0.9953 0.9943 0.9932 0.9919 0.9908 0.9905 
0.9908 0.9929 0.9936 0.9944 0.995 0.9956 0.996 0.9965 0.9967 0.997 0.9971 0.9971 0.9969 0.9966 0.996 0.9953 0.9943 0.9932 0.9919 0.9908 0.9905 
0.9908 0.9929 0.9936 0.9944 0.995 0.9956 0.996 0.9965 0.9967 0.997 0.9971 0.9971 0.9969 0.9966 0.996 0.9953 0.9943 0.9932 0.9919 0.9908 0.9905 
0.9908 0.9929 0.9936 0.9944 0.995 0.9956 0.996 0.9965 0.9967 0.997 0.9971 0.9971 0.9969 0.9966 0.996 0.9953 0.9943 0.9932 0.9919 0.9908 0.9905 
0.9908 0.9929 0.9936 0.9944 0.995 0.9956 0.996 0.9965 0.9967 0.997 0.9971 0.9971 0.9969 0.9966 0.996 0.9953 0.9943 0.9932 0.9919 0.9908 0.9905 
0.9908 0.9929 0.9936 0.9944 0.995 0.9956 0.996 0.9965 0.9967 0.997 0.9971 0.9971 0.9969 0.9966 0.996 0.9953 0.9943 0.9932 0.9919 0.9908 0.9905 
0.9908 0.9929 0.9936 0.9944 0.995 0.9956 0.996 0.9965 0.9967 0.997 0.9971 0.9971 0.9969 0.9966 0.996 0.9953 0.9943 0.9932 0.9919 0.9908 0.9905 
0.9908 0.9929 0.9936 0.9944 0.995 0.9956 0.996 0.9965 0.9967 0.997 0.9971 0.9971 0.9969 0.9966 0.996 0.9953 0.9943 0.9932 0.9919 0.9908 0.9905 
0.9908 0.9929 0.9936 0.9944 0.995 0.9956 0.996 0.9965 0.9967 0.997 0.9971 0.9971 0.9969 0.9966 0.996 0.9953 0.9943 0.9932 0.9919 0.9908 0.9905 
0.9908 0.9929 0.9936 0.9944 0.995 0.9956 0.996 0.9965 0.9967 0.997 0.9971 0.9971 0.9969 0.9966 0.996 0.9953 0.9943 0.9932 0.9919 0.9908 0.9905 
0.9908 0.9929 0.9936 0.9944 0.995 0.9956 0.996 0.9965 0.9967 0.997 0.9971 0.9971 0.9969 0.9966 0.996 0.9953 0.9943 0.9932 0.9919 0.9908 0.9905 
0.9908 0.9929 0.9936 0.9944 0.995 0.9956 0.996 0.9965 0.9967 0.997 0.9971 0.9971 0.9969 0.9966 0.996 0.9953 0.9943 0.9932 0.9919 0.9908 0.9905 
0.9908 0.9929 0.9936 0.9944 0.995 0.9956 0.996 0.9965 0.9967 0.997 0.9971 0.9971 0.9969 0.9966 0.996 0.9953 0.9943 0.9932 0.9919 0.9908 0.9905 
0.9908 0.9929 0.9936 0.9944 0.995 0.9956 0.996 0.9965 0.9967 0.997 0.9971 0.9971 0.9969 0.9966 0.996 0.9953 0.9943 0.9932 0.9919 0.9908 0.9905 
0.9908 0.9929 0.9936 0.9944 0.995 0.9956 0.996 0.9965 0.9967 0.997 0.9971 0.9971 0.9969 0.9966 0.996 0.9953 0.9943 0.9932 0.9919 0.9908 0.9905 
0.9908 0.9929 0.9936 0.9944 0.995 0.9956 0.996 0.9965 0.9967 0.997 0.9971 0.9971 0.9969 0.9966 0.996 0.9953 0.9943 0.9932 0.9919 0.9908 0.9905 
0.9908 0.9929 0.9936 0.9944 0.995 0.9956 0.996 0.9965 0.9967 0.997 0.9971 0.9971 0.9969 0.9966 0.996 0.9953 0.9943 0.9932 0.9919 0.9908 0.9905 
0.9908 0.9929 0.9936 0.9944 0.995 0.9956 0.996 0.9965 0.9967 0.997 0.9971 0.9971 0.9969 0.9966 0.996 0.9953 0.9943 0.9932 0.9919 0.9908 0.9905 
0.9908 0.9929 0.9936 0.9944 0.995 0.9956 0.996 0.9965 0.9967 0.997 0.9971 0.9971 0.9969 0.9966 0.996 0.9953 0.9943 0.9932 0.9919 0.9908 0.9905 
0.9908 0.9929 0.9936 0.9944 0.995 0.9956 0.996 0.9965 0.9967 0.997 0.9971 0.9971 0.9969 0.9966 0.996 0.9953 0.9943 0.9932 0.9919 0.9908 0.9905 
0.9908 0.9929 0.9936 0.9944 0.995 0.9956 0.996 0.9965 0.9967 0.997 0.9971 0.9971 0.9969 0.9966 0.996 0.9953 0.9943 0.9932 0.9919 0.9908 0.9905 
0.9908 0.9929 0.9936 0.9944 0.995 0.9956 0.996 0.9965 0.9967 0.997 0.9971 0.9971 0.9969 0.9966 0.996 0.9953 0.9943 0.9932 0.9919 0.9908 0.9905 
0.9908 0.9929 0.9936 0.9944 0.995 0.9956 0.996 0.9965 0.9967 0.997 0.9971 0.9971 0.9969 0.9966 0.996 0.9953 0.9943 0.9932 0.9919 0.9908 0.9905 
0.9908 0.9929 0.9936 0.9944 0.995 0.9956 0.996 0.9965 0.9967 0.997 0.9971 0.9971 0.9969 0.9966 0.996 0.9953 0.9943 0.9932 0.9919 0.9908 0.9905 
0.9908 0.9929 0.9936 0.9944 0.995 0.9956 0.996 0.9965 0.9967 0.997 0.9971 0.9971 0.9969 0.9966 0.996 0.9953 0.9943 0.9932 0.9919 0.9908 0.9905 
0.9908 0.9929 0.9936 0.9944 0.995 0.9956 0.996 0.9965 0.9967 0.997 0.9971 0.9971 0.9969 0.9966 0.996 0.9953 0.9943 0.9932 0.9919 0.9908 0.9905 
0.9908 0.9929 0.9936 0.9944 0.995 0.9956 0.996 0.9965 0.9967 0.997 0.9971 0.9971 0.9969 0.9966 0.996 0.9953 0.9943 0.9932 0.9919 0.9908 0.9905 
0.9908 0.9929 0.9936 0.9944 0.995 0.9956 0.996 0.9965 0.9967 0.997 0.9971 0.9971 0.9969 0.9966 0.996 0.9953 0.9943 0.9932 0.9919 0.9908 0.9905 
</DataArray>
</PointData>
</Piece>
</ImageData>
</VTKFile>
