<VTKFile type="ImageData">
<ImageData Origin="0 -10 0" Spacing="0.5 0.5 1" WholeExtent="0 20 0 40 0 0">
<Piece Extent="0 20 0 40 0 0">
<PointData>
<DataArray Name="f" NumberOfComponents="1" format="ascii" type="Float64">
1.158e-16 1.131e-16 1.124e-16 1.122e-16 1.122e-16 1.122e-16 1.122e-16 1.121e-16 1.119e-16 1.102e-16 1.021e-16 7.75e-17 3.364e-17 0 0 0 0 0 0 0 0 
5.752e-15 5.613e-15 5.574e-15 5.565e-15 5.563e-15 5.563e-15 5.563e-15 5.563e-15 5.563e-15 5.556e-15 5.484e-15 4.957e-15 2.963e-15 0 0 0 0 0 0 0 0 
2.242e-13 2.186e-13 2.17e-13 2.166e-13 2.166e-13 2.166e-13 2.166e-13 2.166e-13 2.166e-13 2.166e-13 2.164e-13 2.121e-13 1.69e-13 1.788e-14 5.591e-16 0 0 0 0 0 0 
6.872e-12 6.694e-12 6.644e-12 6.632e-12 6.63e-12 6.63e-12 6.63e-12 6.63e-12 6.63e-12 6.63e-12 6.63e-12 6.626e-12 6.303e-12 1.879e-12 2.457e-13 1.439e-14 2.995e-16 0 0 0 0 
1.66e-10 1.616e-10 1.603e-10 1.6e-10 1.6e-10 1.6e-10 1.6e-10 1.6e-10 1.6e-10 1.6e-10 1.6e-10 1.6e-10 1.6e-10 8.413e-11 2.369e-11 3.738e-12 3.259e-13 1.437e-14 2.412e-16 0 0 
3.17e-09 3.086e-09 3.058e-09 3.052e-09 3.05e-09 3.05e-09 3.05e-09 3.05e-09 3.05e-09 3.05e-09 3.05e-09 3.05e-09 3.05e-09 2.162e-09 9.561e-10 2.61e-10 4.357e-11 4.262e-12 2.197e-13 4.545e-15 0 
4.799e-08 4.671e-08 4.625e-08 4.613e-08 4.611e-08 4.611e-08 4.611e-08 4.611e-08 4.611e-08 4.611e-08 4.611e-08 4.611e-08 4.611e-08 3.813e-08 2.217e-08 8.509e-09 2.087e-09 3.11e-10 2.529e-11 8.506e-13 0 
5.778e-07 5.626e-07 5.564e-07 5.549e-07 5.546e-07 5.546e-07 5.545e-07 5.545e-07 5.545e-07 5.545e-07 5.545e-07 5.545e-07 5.545e-07 4.996e-07 3.488e-07 1.714e-07 5.589e-08 1.136e-08 1.283e-09 6.076e-11 0 
5.555e-06 5.41e-06 5.346e-06 5.33e-06 5.327e-06 5.327e-06 5.327e-06 5.327e-06 5.327e-06 5.327e-06 5.327e-06 5.327e-06 5.327e-06 5.037e-06 3.991e-06 2.368e-06 9.705e-07 2.54e-07 3.76e-08 2.357e-09 0 
4.281e-05 4.172e-05 4.12e-05 4.107e-05 4.104e-05 4.104e-05 4.104e-05 4.104e-05 4.104e-05 4.104e-05 4.104e-05 4.104e-05 4.104e-05 3.987e-05 3.447e-05 2.37e-05 1.174e-05 3.821e-06 7.157e-07 5.74e-08 0 
0.0002656 0.000259 0.0002557 0.0002548 0.0002547 0.0002546 0.0002546 0.0002546 0.0002546 0.0002546 0.0002546 0.0002546 0.0002546 0.0002511 0.0002302 0.0001775 0.0001033 4.075e-05 9.445e-06 9.5e-07 0 
0.001332 0.0013 0.001283 0.001279 0.001278 0.001278 0.001278 0.001278 0.001278 0.001278 0.001278 0.001278 0.001278 0.00127 0.001209 0.001018 0.0006795 0.0003186 9e-05 1.122e-05 0 
0.005418 0.005298 0.005229 0.005212 0.005208 0.005208 0.005208 0.005208 0.005208 0.005208 0.005208 0.005208 0.005208 0.005194 0.005064 0.004551 0.003406 0.001869 0.0006365 9.766e-05 0 
0.01794 0.01758 0.01736 0.01731 0.0173 0.01729 0.01729 0.01729 0.01729 0.01729 0.01729 0.01729 0.01729 0.01728 0.01707 0.01606 0.01321 0.008353 0.003406 0.0006422 0 
0.04848 0.04765 0.0471 0.04696 0.04693 0.04693 0.04693 0.04693 0.04693 0.04693 0.04693 0.04693 0.04693 0.04691 0.04669 0.04525 0.04007 0.02879 0.01397 0.003246 0 
0.1072 0.1057 0.1046 0.1044 0.1043 0.1043 0.1043 0.1043 0.1043 0.1043 0.1043 0.1043 0.1043 0.1043 0.1041 0.1027 0.09605 0.07711 0.04431 0.01278 0 
0.1941 0.1921 0.1906 0.1902 0.1901 0.1901 0.1901 0.1901 0.1901 0.1901 0.1901 0.1901 0.1901 0.1901 0.19 0.1891 0.1834 0.1614 0.1093 0.03971 0 
0.2835 0.2862 0.2847 0.2844 0.2843 0.2843 0.2843 0.2843 0.2843 0.2843 0.2843 0.2843 0.2843 0.2843 0.2843 0.2839 0.281 0.265 0.2098 0.0986 0 
0.3096 0.3477 0.3488 0.3487 0.3487 0.3487 0.3487 0.3487 0.3487 0.3487 0.3487 0.3487 0.3487 0.3487 0.3487 0.3486 0.3479 0.3421 0.3095 0.1948 0 
0.2085 0.3329 0.3486 0.35 0.3501 0.3501 0.3501 0.3501 0.3501 0.3501 0.3501 0.3501 0.3501 0.3501 0.3501 0.3501 0.3501 0.3498 0.3437 0.2942 0 
0.05559 0.2282 0.2778 0.2863 0.2872 0.2873 0.2873 0.2873 0.2873 0.2873 0.2873 0.2873 0.2873 0.2873 0.2873 0.2873 0.2874 0.2877 0.289 0.2935 0.2971 
0 0.09861 0.1661 0.1875 0.1915 0.1921 0.1921 0.1921 0.1921 0.1921 0.1921 0.1921 0.1921 0.1921 0.1921 0.1921 0.1922 0.1925 0.1937 0.1981 0.202 
0 0.03354 0.07449 0.09624 0.1029 0.1041 0.1043 0.1043 0.1043 0.1043 0.1043 0.1043 0.1043 0.1043 0.1043 0.1043 0.1043 0.1045 0.1053 0.1082 0.1111 
0 0.008894 0.02528 0.0382 0.04393 0.04548 0.04574 0.04576 0.04576 0.04576 0.04576 0.04576 0.04576 0.04576 0.04576 0.04576 0.04578 0.04588 0.0463 0.04768 0.04921 
0 0.001821 0.0065 0.01161 0.01473 0.01588 0.01614 0.01617 0.01617 0.01617 0.01617 0.01617 0.01617 0.01617 0.01617 0.01617 0.01618 0.01622 0.01638 0.01689 0.01751 
0 0.0002843 0.00126 0.002681 0.003829 0.004389 0.004554 0.004581 0.004583 0.004583 0.004583 0.004583 0.004583 0.004583 0.004583 0.004584 0.004586 0.004597 0.004642 0.00479 0.00498 
0 3.341e-05 0.0001828 0.0004657 0.0007623 0.0009494 0.001021 0.001036 0.001037 0.001037 0.001037 0.001037 0.001037 0.001037 0.001037 0.001037 0.001038 0.00104 0.00105 0.001083 0.001129 
0 2.908e-06 1.961e-05 6.019e-05 0.0001147 0.0001588 0.0001802 0.000186 0.0001867 0.0001867 0.0001867 0.0001867 0.0001867 0.0001867 0.0001867 0.0001867 0.0001868 0.0001872 0.000189 0.0001948 0.0002032 
0 1.836e-07 1.531e-06 5.71e-06 1.288e-05 2.026e-05 2.483e-05 2.64e-05 2.664e-05 2.664e-05 2.664e-05 2.664e-05 2.664e-05 2.664e-05 2.664e-05 2.664e-05 2.665e-05 2.671e-05 2.696e-05 2.774e-05 2.896e-05 
0 8.195e-09 8.513e-08 3.905e-07 1.06e-06 1.941e-06 2.638e-06 2.945e-06 3.003e-06 3.003e-06 3.003e-06 3.003e-06 3.003e-06 3.003e-06 3.003e-06 3.003e-06 3.004e-06 3.011e-06 3.037e-06 3.121e-06 3.258e-06 
0 2.492e-10 3.271e-09 1.876e-08 6.264e-08 1.371e-07 2.131e-07 2.563e-07 2.668e-07 2.668e-07 2.668e-07 2.668e-07 2.668e-07 2.668e-07 2.668e-07 2.668e-07 2.669e-07 2.675e-07 2.696e-07 2.766e-07 2.886e-07 
0 4.886e-12 8.286e-11 6.092e-10 2.571e-09 6.954e-09 1.283e-08 1.723e-08 1.864e-08 1.864e-08 1.864e-08 1.864e-08 1.864e-08 1.864e-08 1.864e-08 1.864e-08 1.865e-08 1.868e-08 1.882e-08 1.927e-08 2.01e-08 
0 5.643e-14 1.282e-12 1.253e-11 6.961e-11 2.431e-10 5.596e-10 8.813e-10 1.022e-09 1.022e-09 1.022e-09 1.022e-09 1.022e-09 1.022e-09 1.022e-09 1.022e-09 1.022e-09 1.024e-09 1.031e-09 1.054e-09 1.098e-09 
0 3.247e-16 1.049e-14 1.451e-13 1.129e-12 5.441e-12 1.679e-11 3.341e-11 4.389e-11 4.389e-11 4.389e-11 4.389e-11 4.389e-11 4.389e-11 4.389e-11 4.389e-11 4.391e-11 4.397e-11 4.425e-11 4.514e-11 4.703e-11 
0 6.41e-19 3.298e-17 7.233e-16 8.862e-15 6.634e-14 3.102e-13 8.871e-13 1.476e-12 1.476e-12 1.476e-12 1.476e-12 1.476e-12 1.476e-12 1.476e-12 1.476e-12 1.476e-12 1.478e-12 1.486e-12 1.514e-12 1.576e-12 
0 0 1.44e-20 6.652e-19 1.706e-17 2.643e-16 2.503e-15 1.382e-14 3.876e-14 3.878e-14 3.878e-14 3.878e-14 3.878e-14 3.878e-14 3.878e-14 3.878e-14 3.879e-14 3.883e-14 3.902e-14 3.967e-14 4.13e-14 
0 0 0 0 0 0 0 0 7.66e-16 7.911e-16 7.956e-16 7.961e-16 7.962e-16 7.962e-16 7.962e-16 7.962e-16 7.963e-16 7.97e-16 8.004e-16 8.124e-16 8.457e-16 
0 0 0 0 0 0 0 0 0 8.079e-18 1.189e-17 1.266e-17 1.275e-17 1.276e-17 1.276e-17 1.276e-17 1.276e-17 1.277e-17 1.282e-17 1.301e-17 1.352e-17 
0 0 0 0 0 0 0 0 0 6.238e-20 1.25e-19 1.52e-19 1.585e-19 1.595e-19 1.595e-19 1.596e-19 1.596e-19 1.597e-19 1.603e-19 1.625e-19 1.687e-19 
0 0 0 0 0 0 0 0 0 0 0 0 0 0 0 0 0 0 0 0 0 
0 0 0 0 0 0 0 0 0 0 0 0 0 0 0 0 0 0 0 0 0 
</DataArray>
<DataArray Name="E" NumberOfComponents="1" format="ascii" type="Float64">
1.607 1.572 1.527 1.514 1.511 1.51 1.51 1.51 1.51 1.51 1.51 1.51 1.51 1.51 1.51 1.51 1.508 1.497 1.459 1.354 1.279 
1.607 1.572 1.527 1.514 1.511 1.51 1.51 1.51 1.51 1.51 1.51 1.51 1.51 1.51 1.51 1.51 1.508 1.497 1.459 1.354 1.279 
1.607 1.572 1.527 1.514 1.511 1.51 1.51 1.51 1.51 1.51 1.51 1.51 1.51 1.51 1.51 1.51 1.508 1.497 1.459 1.354 1.279 
1.607 1.572 1.527 1.514 1.511 1.51 1.51 1.51 1.51 1.51 1.51 1.51 1.51 1.51 1.51 1.51 1.508 1.497 1.459 1.354 1.279 
1.607 1.572 1.527 1.514 1.511 1.51 1.51 1.51 1.51 1.51 1.51 1.51 1.51 1.51 1.51 1.51 1.508 1.497 1.459 1.354 1.279 
1.607 1.572 1.527 1.514 1.511 1.51 1.51 1.51 1.51 1.51 1.51 1.51 1.51 1.51 1.51 1.51 1.508 1.497 1.459 1.354 1.279 
1.607 1.572 1.527 1.514 1.511 1.51 1.51 1.51 1.51 1.51 1.51 1.51 1.51 1.51 1.51 1.51 1.508 1.497 1.459 1.354 1.279 
1.607 1.572 1.527 1.514 1.511 1.51 1.51 1.51 1.51 1.51 1.51 1.51 1.51 1.51 1.51 1.51 1.508 1.497 1.459 1.354 1.279 
1.607 1.572 1.527 1.514 1.511 1.51 1.51 1.51 1.51 1.51 1.51 1.51 1.51 1.51 1.51 1.51 1.508 1.497 1.459 1.354 1.279 
1.607 1.572 1.527 1.514 1.511 1.51 1.51 1.51 1.51 1.51 1.51 1.51 1.51 1.51 1.51 1.51 1.508 1.497 1.459 1.354 1.279 
1.607 1.572 1.527 1.514 1.511 1.51 1.51 1.51 1.51 1.51 1.51 1.51 1.51 1.51 1.51 1.51 1.508 1.497 1.459 1.354 1.279 
1.607 1.572 1.527 1.514 1.511 1.51 1.51 1.51 1.51 1.51 1.51 1.51 1.51 1.51 1.51 1.51 1.508 1.497 1.459 1.354 1.279 
1.607 1.572 1.527 1.514 1.511 1.51 1.51 1.51 1.51 1.51 1.51 1.51 1.51 1.51 1.51 1.51 1.508 1.497 1.459 1.354 1.279 
1.607 1.572 1.527 1.514 1.511 1.51 1.51 1.51 1.51 1.51 1.51 1.51 1.51 1.51 1.51 1.51 1.508 1.497 1.459 1.354 1.279 
1.607 1.572 1.527 1.514 1.511 1.51 1.51 1.51 1.51 1.51 1.51 1.51 1.51 1.51 1.51 1.51 1.508 1.497 1.459 1.354 1.279 
1.607 1.572 1.527 1.514 1.511 1.51 1.51 1.51 1.51 1.51 1.51 1.51 1.51 1.51 1.51 1.51 1.508 1.497 1.459 1.354 1.279 
1.607 1.572 1.527 1.514 1.511 1.51 1.51 1.51 1.51 1.51 1.51 1.51 1.51 1.51 1.51 1.51 1.508 1.497 1.459 1.354 1.279 
1.607 1.572 1.527 1.514 1.511 1.51 1.51 1.51 1.51 1.51 1.51 1.51 1.51 1.51 1.51 1.51 1.508 1.497 1.459 1.354 1.279 
1.607 1.572 1.527 1.514 1.511 1.51 1.51 1.51 1.51 1.51 1.51 1.51 1.51 1.51 1.51 1.51 1.508 1.497 1.459 1.354 1.279 
1.607 1.572 1.527 1.514 1.511 1.51 1.51 1.51 1.51 1.51 1.51 1.51 1.51 1.51 1.51 1.51 1.508 1.497 1.459 1.354 1.279 
1.607 1.572 1.527 1.514 1.511 1.51 1.51 1.51 1.51 1.51 1.51 1.51 1.51 1.51 1.51 1.51 1.508 1.497 1.459 1.354 1.279 
1.607 1.572 1.527 1.514 1.511 1.51 1.51 1.51 1.51 1.51 1.51 1.51 1.51 1.51 1.51 1.51 1.508 1.497 1.459 1.354 1.279 
1.607 1.572 1.527 1.514 1.511 1.51 1.51 1.51 1.51 1.51 1.51 1.51 1.51 1.51 1.51 1.51 1.508 1.497 1.459 1.354 1.279 
1.607 1.572 1.527 1.514 1.511 1.51 1.51 1.51 1.51 1.51 1.51 1.51 1.51 1.51 1.51 1.51 1.508 1.497 1.459 1.354 1.279 
1.607 1.572 1.527 1.514 1.511 1.51 1.51 1.51 1.51 1.51 1.51 1.51 1.51 1.51 1.51 1.51 1.508 1.497 1.459 1.354 1.279 
1.607 1.572 1.527 1.514 1.511 1.51 1.51 1.51 1.51 1.51 1.51 1.51 1.51 1.51 1.51 1.51 1.508 1.497 1.459 1.354 1.279 
1.607 1.572 1.527 1.514 1.511 1.51 1.51 1.51 1.51 1.51 1.51 1.51 1.51 1.51 1.51 1.51 1.508 1.497 1.459 1.354 1.279 
1.607 1.572 1.527 1.514 1.511 1.51 1.51 1.51 1.51 1.51 1.51 1.51 1.51 1.51 1.51 1.51 1.508 1.497 1.459 1.354 1.279 
1.607 1.572 1.527 1.514 1.511 1.51 1.51 1.51 1.51 1.51 1.51 1.51 1.51 1.51 1.51 1.51 1.508 1.497 1.459 1.354 1.279 
1.607 1.572 1.527 1.514 1.511 1.51 1.51 1.51 1.51 1.51 1.51 1.51 1.51 1.51 1.51 1.51 1.508 1.497 1.459 1.354 1.279 
1.607 1.572 1.527 1.514 1.511 1.51 1.51 1.51 1.51 1.51 1.51 1.51 1.51 1.51 1.51 1.51 1.508 1.497 1.459 1.354 1.279 
1.607 1.572 1.527 1.514 1.511 1.51 1.51 1.51 1.51 1.51 1.51 1.51 1.51 1.51 1.51 1.51 1.508 1.497 1.459 1.354 1.279 
1.607 1.572 1.527 1.514 1.511 1.51 1.51 1.51 1.51 1.51 1.51 1.51 1.51 1.51 1.51 1.51 1.508 1.497 1.459 1.354 1.279 
1.607 1.572 1.527 1.514 1.511 1.51 1.51 1.51 1.51 1.51 1.51 1.51 1.51 1.51 1.51 1.51 1.508 1.497 1.459 1.354 1.279 
1.607 1.572 1.527 1.514 1.511 1.51 1.51 1.51 1.51 1.51 1.51 1.51 1.51 1.51 1.51 1.51 1.508 1.497 1.459 1.354 1.279 
1.607 1.572 1.527 1.514 1.511 1.51 1.51 1.51 1.51 1.51 1.51 1.51 1.51 1.51 1.51 1.51 1.508 1.497 1.459 1.354 1.279 
1.607 1.572 1.527 1.514 1.511 1.51 1.51 1.51 1.51 1.51 1.51 1.51 1.51 1.51 1.51 1.51 1.508 1.497 1.459 1.354 1.279 
1.607 1.572 1.527 1.514 1.511 1.51 1.51 1.51 1.51 1.51 1.51 1.51 1.51 1.51 1.51 1.51 1.508 1.497 1.459 1.354 1.279 
1.607 1.572 1.527 1.514 1.511 1.51 1.51 1.51 1.51 1.51 1.51 1.51 1.51 1.51 1.51 1.51 1.508 1.497 1.459 1.354 1.279 
1.607 1.572 1.527 1.514 1.511 1.51 1.51 1.51 1.51 1.51 1.51 1.51 1.51 1.51 1.51 1.51 1.508 1.497 1.459 1.354 1.279 
1.607 1.572 1.527 1.514 1.511 1.51 1.51 1.51 1.51 1.51 1.51 1.51 1.51 1.51 1.51 1.51 1.508 1.497 1.459 1.354 1.279 
</DataArray>
<DataArray Name="ne" NumberOfComponents="1" format="ascii" type="Float64">
0.6096 0.8614 0.9575 0.9897 0.9981 0.9998 1 1 1 1 1 1 1 1 0.9999 0.9988 0.992 0.9643 0.8825 0.7003 0.3944 
0.6096 0.8614 0.9575 0.9897 0.9981 0.9998 1 1 1 1 1 1 1 1 0.9999 0.9988 0.992 0.9643 0.8825 0.7003 0.3944 
0.6096 0.8614 0.9575 0.9897 0.9981 0.9998 1 1 1 1 1 1 1 1 0.9999 0.9988 0.992 0.9643 0.8825 0.7003 0.3944 
0.6096 0.8614 0.9575 0.9897 0.9981 0.9998 1 1 1 1 1 1 1 1 0.9999 0.9988 0.992 0.9643 0.8825 0.7003 0.3944 
0.6096 0.8614 0.9575 0.9897 0.9981 0.9998 1 1 1 1 1 1 1 1 0.9999 0.9988 0.992 0.9643 0.8825 0.7003 0.3944 
0.6096 0.8614 0.9575 0.9897 0.9981 0.9998 1 1 1 1 1 1 1 1 0.9999 0.9988 0.992 0.9643 0.8825 0.7003 0.3944 
0.6096 0.8614 0.9575 0.9897 0.9981 0.9998 1 1 1 1 1 1 1 1 0.9999 0.9988 0.992 0.9643 0.8825 0.7003 0.3944 
0.6096 0.8614 0.9575 0.9897 0.9981 0.9998 1 1 1 1 1 1 1 1 0.9999 0.9988 0.992 0.9643 0.8825 0.7003 0.3944 
0.6096 0.8614 0.9575 0.9897 0.9981 0.9998 1 1 1 1 1 1 1 1 0.9999 0.9988 0.992 0.9643 0.8825 0.7003 0.3944 
0.6096 0.8614 0.9575 0.9897 0.9981 0.9998 1 1 1 1 1 1 1 1 0.9999 0.9988 0.992 0.9643 0.8825 0.7003 0.3944 
0.6096 0.8614 0.9575 0.9897 0.9981 0.9998 1 1 1 1 1 1 1 1 0.9999 0.9988 0.992 0.9643 0.8825 0.7003 0.3944 
0.6096 0.8614 0.9575 0.9897 0.9981 0.9998 1 1 1 1 1 1 1 1 0.9999 0.9988 0.992 0.9643 0.8825 0.7003 0.3944 
0.6096 0.8614 0.9575 0.9897 0.9981 0.9998 1 1 1 1 1 1 1 1 0.9999 0.9988 0.992 0.9643 0.8825 0.7003 0.3944 
0.6096 0.8614 0.9575 0.9897 0.9981 0.9998 1 1 1 1 1 1 1 1 0.9999 0.9988 0.992 0.9643 0.8825 0.7003 0.3944 
0.6096 0.8614 0.9575 0.9897 0.9981 0.9998 1 1 1 1 1 1 1 1 0.9999 0.9988 0.992 0.9643 0.8825 0.7003 0.3944 
0.6096 0.8614 0.9575 0.9897 0.9981 0.9998 1 1 1 1 1 1 1 1 0.9999 0.9988 0.992 0.9643 0.8825 0.7003 0.3944 
0.6096 0.8614 0.9575 0.9897 0.9981 0.9998 1 1 1 1 1 1 1 1 0.9999 0.9988 0.992 0.9643 0.8825 0.7003 0.3944 
0.6096 0.8614 0.9575 0.9897 0.9981 0.9998 1 1 1 1 1 1 1 1 0.9999 0.9988 0.992 0.9643 0.8825 0.7003 0.3944 
0.6096 0.8614 0.9575 0.9897 0.9981 0.9998 1 1 1 1 1 1 1 1 0.9999 0.9988 0.992 0.9643 0.8825 0.7003 0.3944 
0.6096 0.8614 0.9575 0.9897 0.9981 0.9998 1 1 1 1 1 1 1 1 0.9999 0.9988 0.992 0.9643 0.8825 0.7003 0.3944 
0.6096 0.8614 0.9575 0.9897 0.9981 0.9998 1 1 1 1 1 1 1 1 0.9999 0.9988 0.992 0.9643 0.8825 0.7003 0.3944 
0.6096 0.8614 0.9575 0.9897 0.9981 0.9998 1 1 1 1 1 1 1 1 0.9999 0.9988 0.992 0.9643 0.8825 0.7003 0.3944 
0.6096 0.8614 0.9575 0.9897 0.9981 0.9998 1 1 1 1 1 1 1 1 0.9999 0.9988 0.992 0.9643 0.8825 0.7003 0.3944 
0.6096 0.8614 0.9575 0.9897 0.9981 0.9998 1 1 1 1 1 1 1 1 0.9999 0.9988 0.992 0.9643 0.8825 0.7003 0.3944 
0.6096 0.8614 0.9575 0.9897 0.9981 0.9998 1 1 1 1 1 1 1 1 0.9999 0.9988 0.992 0.9643 0.8825 0.7003 0.3944 
0.6096 0.8614 0.9575 0.9897 0.9981 0.9998 1 1 1 1 1 1 1 1 0.9999 0.9988 0.992 0.9643 0.8825 0.7003 0.3944 
0.6096 0.8614 0.9575 0.9897 0.9981 0.9998 1 1 1 1 1 1 1 1 0.9999 0.9988 0.992 0.9643 0.8825 0.7003 0.3944 
0.6096 0.8614 0.9575 0.9897 0.9981 0.9998 1 1 1 1 1 1 1 1 0.9999 0.9988 0.992 0.9643 0.8825 0.7003 0.3944 
0.6096 0.8614 0.9575 0.9897 0.9981 0.9998 1 1 1 1 1 1 1 1 0.9999 0.9988 0.992 0.9643 0.8825 0.7003 0.3944 
0.6096 0.8614 0.9575 0.9897 0.9981 0.9998 1 1 1 1 1 1 1 1 0.9999 0.9988 0.992 0.9643 0.8825 0.7003 0.3944 
0.6096 0.8614 0.9575 0.9897 0.9981 0.9998 1 1 1 1 1 1 1 1 0.9999 0.9988 0.992 0.9643 0.8825 0.7003 0.3944 
0.6096 0.8614 0.9575 0.9897 0.9981 0.9998 1 1 1 1 1 1 1 1 0.9999 0.9988 0.992 0.9643 0.8825 0.7003 0.3944 
0.6096 0.8614 0.9575 0.9897 0.9981 0.9998 1 1 1 1 1 1 1 1 0.9999 0.9988 0.992 0.9643 0.8825 0.7003 0.3944 
0.6096 0.8614 0.9575 0.9897 0.9981 0.9998 1 1 1 1 1 1 1 1 0.9999 0.9988 0.992 0.9643 0.8825 0.7003 0.3944 
0.6096 0.8614 0.9575 0.9897 0.9981 0.9998 1 1 1 1 1 1 1 1 0.9999 0.9988 0.992 0.9643 0.8825 0.7003 0.3944 
0.6096 0.8614 0.9575 0.9897 0.9981 0.9998 1 1 1 1 1 1 1 1 0.9999 0.9988 0.992 0.9643 0.8825 0.7003 0.3944 
0.6096 0.8614 0.9575 0.9897 0.9981 0.9998 1 1 1 1 1 1 1 1 0.9999 0.9988 0.992 0.9643 0.8825 0.7003 0.3944 
0.6096 0.8614 0.9575 0.9897 0.9981 0.9998 1 1 1 1 1 1 1 1 0.9999 0.9988 0.992 0.9643 0.8825 0.7003 0.3944 
0.6096 0.8614 0.9575 0.9897 0.9981 0.9998 1 1 1 1 1 1 1 1 0.9999 0.9988 0.992 0.9643 0.8825 0.7003 0.3944 
0.6096 0.8614 0.9575 0.9897 0.9981 0.9998 1 1 1 1 1 1 1 1 0.9999 0.9988 0.992 0.9643 0.8825 0.7003 0.3944 
0.6096 0.8614 0.9575 0.9897 0.9981 0.9998 1 1 1 1 1 1 1 1 0.9999 0.9988 0.992 0.9643 0.8825 0.7003 0.3944 
</DataArray>
</PointData>
</Piece>
</ImageData>
</VTKFile>
