<VTKFile type="ImageData">
<ImageData Origin="0 -10 0" Spacing="0.5 0.5 1" WholeExtent="0 20 0 40 0 0">
<Piece Extent="0 20 0 40 0 0">
<PointData>
<DataArray Name="f" NumberOfComponents="1" format="ascii" type="Float64">
1.11e-16 1.11e-16 1.11e-16 1.11e-16 1.11e-16 1.11e-16 1.11e-16 1.11e-16 1.11e-16 1.11e-16 1.11e-16 1.11e-16 1.11e-16 1.11e-16 1.11e-16 1.11e-16 1.11e-16 1.11e-16 1.11e-16 1.11e-16 1.11e-16 
5.507e-15 5.507e-15 5.507e-15 5.507e-15 5.507e-15 5.507e-15 5.507e-15 5.507e-15 5.507e-15 5.507e-15 5.507e-15 5.507e-15 5.507e-15 5.507e-15 5.507e-15 5.507e-15 5.507e-15 5.507e-15 5.507e-15 5.507e-15 5.507e-15 
2.144e-13 2.144e-13 2.144e-13 2.144e-13 2.144e-13 2.144e-13 2.144e-13 2.144e-13 2.144e-13 2.144e-13 2.144e-13 2.144e-13 2.144e-13 2.144e-13 2.144e-13 2.144e-13 2.144e-13 2.144e-13 2.144e-13 2.144e-13 2.144e-13 
6.566e-12 6.566e-12 6.566e-12 6.566e-12 6.566e-12 6.566e-12 6.566e-12 6.566e-12 6.566e-12 6.566e-12 6.566e-12 6.566e-12 6.566e-12 6.566e-12 6.566e-12 6.566e-12 6.566e-12 6.566e-12 6.566e-12 6.566e-12 6.566e-12 
1.584e-10 1.584e-10 1.584e-10 1.584e-10 1.584e-10 1.584e-10 1.584e-10 1.584e-10 1.584e-10 1.584e-10 1.584e-10 1.584e-10 1.584e-10 1.584e-10 1.584e-10 1.584e-10 1.584e-10 1.584e-10 1.584e-10 1.584e-10 1.584e-10 
3.022e-09 3.022e-09 3.022e-09 3.022e-09 3.022e-09 3.022e-09 3.022e-09 3.022e-09 3.022e-09 3.022e-09 3.022e-09 3.022e-09 3.022e-09 3.022e-09 3.022e-09 3.022e-09 3.022e-09 3.022e-09 3.022e-09 3.022e-09 3.022e-09 
4.57e-08 4.57e-08 4.57e-08 4.57e-08 4.57e-08 4.57e-08 4.57e-08 4.57e-08 4.57e-08 4.57e-08 4.57e-08 4.57e-08 4.57e-08 4.57e-08 4.57e-08 4.57e-08 4.57e-08 4.57e-08 4.57e-08 4.57e-08 4.57e-08 
5.498e-07 5.498e-07 5.498e-07 5.498e-07 5.498e-07 5.498e-07 5.498e-07 5.498e-07 5.498e-07 5.498e-07 5.498e-07 5.498e-07 5.498e-07 5.498e-07 5.498e-07 5.498e-07 5.498e-07 5.498e-07 5.498e-07 5.498e-07 5.498e-07 
5.284e-06 5.284e-06 5.284e-06 5.284e-06 5.284e-06 5.284e-06 5.284e-06 5.284e-06 5.284e-06 5.284e-06 5.284e-06 5.284e-06 5.284e-06 5.284e-06 5.284e-06 5.284e-06 5.284e-06 5.284e-06 5.284e-06 5.284e-06 5.284e-06 
4.073e-05 4.073e-05 4.073e-05 4.073e-05 4.073e-05 4.073e-05 4.073e-05 4.073e-05 4.073e-05 4.073e-05 4.073e-05 4.073e-05 4.073e-05 4.073e-05 4.073e-05 4.073e-05 4.073e-05 4.073e-05 4.073e-05 4.073e-05 4.073e-05 
0.0002529 0.0002529 0.0002529 0.0002529 0.0002529 0.0002529 0.0002529 0.0002529 0.0002529 0.0002529 0.0002529 0.0002529 0.0002529 0.0002529 0.0002529 0.0002529 0.0002529 0.0002529 0.0002529 0.0002529 0.0002529 
0.00127 0.00127 0.00127 0.00127 0.00127 0.00127 0.00127 0.00127 0.00127 0.00127 0.00127 0.00127 0.00127 0.00127 0.00127 0.00127 0.00127 0.00127 0.00127 0.00127 0.00127 
0.005179 0.005179 0.005179 0.005179 0.005179 0.005179 0.005179 0.005179 0.005179 0.005179 0.005179 0.005179 0.005179 0.005179 0.005179 0.005179 0.005179 0.005179 0.005179 0.005179 0.005179 
0.01721 0.01721 0.01721 0.01721 0.01721 0.01721 0.01721 0.01721 0.01721 0.01721 0.01721 0.01721 0.01721 0.01721 0.01721 0.01721 0.01721 0.01721 0.01721 0.01721 0.01721 
0.04675 0.04675 0.04675 0.04675 0.04675 0.04675 0.04675 0.04675 0.04675 0.04675 0.04675 0.04675 0.04675 0.04675 0.04675 0.04675 0.04675 0.04675 0.04675 0.04675 0.04675 
0.104 0.104 0.104 0.104 0.104 0.104 0.104 0.104 0.104 0.104 0.104 0.104 0.104 0.104 0.104 0.104 0.104 0.104 0.104 0.104 0.104 
0.1897 0.1897 0.1897 0.1897 0.1897 0.1897 0.1897 0.1897 0.1897 0.1897 0.1897 0.1897 0.1897 0.1897 0.1897 0.1897 0.1897 0.1897 0.1897 0.1897 0.1897 
0.284 0.284 0.284 0.284 0.284 0.284 0.284 0.284 0.284 0.284 0.284 0.284 0.284 0.284 0.284 0.284 0.284 0.284 0.284 0.284 0.284 
0.3485 0.3485 0.3485 0.3485 0.3485 0.3485 0.3485 0.3485 0.3485 0.3485 0.3485 0.3485 0.3485 0.3485 0.3485 0.3485 0.3485 0.3485 0.3485 0.3485 0.3485 
0.3503 0.3503 0.3503 0.3503 0.3503 0.3503 0.3503 0.3503 0.3503 0.3503 0.3503 0.3503 0.3503 0.3503 0.3503 0.3503 0.3503 0.3503 0.3503 0.3503 0.3503 
0.2877 0.2877 0.2877 0.2877 0.2877 0.2877 0.2877 0.2877 0.2877 0.2877 0.2877 0.2877 0.2877 0.2877 0.2877 0.2877 0.2877 0.2877 0.2877 0.2877 0.2877 
0.1925 0.1925 0.1925 0.1925 0.1925 0.1925 0.1925 0.1925 0.1925 0.1925 0.1925 0.1925 0.1925 0.1925 0.1925 0.1925 0.1925 0.1925 0.1925 0.1925 0.1925 
0.1045 0.1045 0.1045 0.1045 0.1045 0.1045 0.1045 0.1045 0.1045 0.1045 0.1045 0.1045 0.1045 0.1045 0.1045 0.1045 0.1045 0.1045 0.1045 0.1045 0.1045 
0.04591 0.04591 0.04591 0.04591 0.04591 0.04591 0.04591 0.04591 0.04591 0.04591 0.04591 0.04591 0.04591 0.04591 0.04591 0.04591 0.04591 0.04591 0.04591 0.04591 0.04591 
0.01624 0.01624 0.01624 0.01624 0.01624 0.01624 0.01624 0.01624 0.01624 0.01624 0.01624 0.01624 0.01624 0.01624 0.01624 0.01624 0.01624 0.01624 0.01624 0.01624 0.01624 
0.004603 0.004603 0.004603 0.004603 0.004603 0.004603 0.004603 0.004603 0.004603 0.004603 0.004603 0.004603 0.004603 0.004603 0.004603 0.004603 0.004603 0.004603 0.004603 0.004603 0.004603 
0.001042 0.001042 0.001042 0.001042 0.001042 0.001042 0.001042 0.001042 0.001042 0.001042 0.001042 0.001042 0.001042 0.001042 0.001042 0.001042 0.001042 0.001042 0.001042 0.001042 0.001042 
0.0001876 0.0001876 0.0001876 0.0001876 0.0001876 0.0001876 0.0001876 0.0001876 0.0001876 0.0001876 0.0001876 0.0001876 0.0001876 0.0001876 0.0001876 0.0001876 0.0001876 0.0001876 0.0001876 0.0001876 0.0001876 
2.678e-05 2.678e-05 2.678e-05 2.678e-05 2.678e-05 2.678e-05 2.678e-05 2.678e-05 2.678e-05 2.678e-05 2.678e-05 2.678e-05 2.678e-05 2.678e-05 2.678e-05 2.678e-05 2.678e-05 2.678e-05 2.678e-05 2.678e-05 2.678e-05 
3.02e-06 3.02e-06 3.02e-06 3.02e-06 3.02e-06 3.02e-06 3.02e-06 3.02e-06 3.02e-06 3.02e-06 3.02e-06 3.02e-06 3.02e-06 3.02e-06 3.02e-06 3.02e-06 3.02e-06 3.02e-06 3.02e-06 3.02e-06 3.02e-06 
2.683e-07 2.683e-07 2.683e-07 2.683e-07 2.683e-07 2.683e-07 2.683e-07 2.683e-07 2.683e-07 2.683e-07 2.683e-07 2.683e-07 2.683e-07 2.683e-07 2.683e-07 2.683e-07 2.683e-07 2.683e-07 2.683e-07 2.683e-07 2.683e-07 
1.875e-08 1.875e-08 1.875e-08 1.875e-08 1.875e-08 1.875e-08 1.875e-08 1.875e-08 1.875e-08 1.875e-08 1.875e-08 1.875e-08 1.875e-08 1.875e-08 1.875e-08 1.875e-08 1.875e-08 1.875e-08 1.875e-08 1.875e-08 1.875e-08 
1.028e-09 1.028e-09 1.028e-09 1.028e-09 1.028e-09 1.028e-09 1.028e-09 1.028e-09 1.028e-09 1.028e-09 1.028e-09 1.028e-09 1.028e-09 1.028e-09 1.028e-09 1.028e-09 1.028e-09 1.028e-09 1.028e-09 1.028e-09 1.028e-09 
4.416e-11 4.416e-11 4.416e-11 4.416e-11 4.416e-11 4.416e-11 4.416e-11 4.416e-11 4.416e-11 4.416e-11 4.416e-11 4.416e-11 4.416e-11 4.416e-11 4.416e-11 4.416e-11 4.416e-11 4.416e-11 4.416e-11 4.416e-11 4.416e-11 
1.485e-12 1.485e-12 1.485e-12 1.485e-12 1.485e-12 1.485e-12 1.485e-12 1.485e-12 1.485e-12 1.485e-12 1.485e-12 1.485e-12 1.485e-12 1.485e-12 1.485e-12 1.485e-12 1.485e-12 1.485e-12 1.485e-12 1.485e-12 1.485e-12 
3.902e-14 3.902e-14 3.902e-14 3.902e-14 3.902e-14 3.902e-14 3.902e-14 3.902e-14 3.902e-14 3.902e-14 3.902e-14 3.902e-14 3.902e-14 3.902e-14 3.902e-14 3.902e-14 3.902e-14 3.902e-14 3.902e-14 3.902e-14 3.902e-14 
8.012e-16 8.012e-16 8.012e-16 8.012e-16 8.012e-16 8.012e-16 8.012e-16 8.012e-16 8.012e-16 8.012e-16 8.012e-16 8.012e-16 8.012e-16 8.012e-16 8.012e-16 8.012e-16 8.012e-16 8.012e-16 8.012e-16 8.012e-16 8.012e-16 
1.284e-17 1.284e-17 1.284e-17 1.284e-17 1.284e-17 1.284e-17 1.284e-17 1.284e-17 1.284e-17 1.284e-17 1.284e-17 1.284e-17 1.284e-17 1.284e-17 1.284e-17 1.284e-17 1.284e-17 1.284e-17 1.284e-17 1.284e-17 1.284e-17 
1.608e-19 1.608e-19 1.608e-19 1.608e-19 1.608e-19 1.608e-19 1.608e-19 1.608e-19 1.608e-19 1.608e-19 1.608e-19 1.608e-19 1.608e-19 1.608e-19 1.608e-19 1.608e-19 1.608e-19 1.608e-19 1.608e-19 1.608e-19 1.608e-19 
2.325e-20 2.325e-20 2.325e-20 2.325e-20 2.325e-20 2.325e-20 2.325e-20 2.325e-20 2.325e-20 2.325e-20 2.325e-20 2.325e-20 2.325e-20 2.325e-20 2.325e-20 2.325e-20 2.325e-20 2.325e-20 2.325e-20 2.325e-20 2.325e-20 
1.754e-18 1.754e-18 1.754e-18 1.754e-18 1.754e-18 1.754e-18 1.754e-18 1.754e-18 1.754e-18 1.754e-18 1.754e-18 1.754e-18 1.754e-18 1.754e-18 1.754e-18 1.754e-18 1.754e-18 1.754e-18 1.754e-18 1.754e-18 1.754e-18 
</DataArray>
<DataArray Name="E" NumberOfComponents="1" format="ascii" type="Float64">
1.5 1.5 1.5 1.5 1.5 1.5 1.5 1.5 1.5 1.5 1.5 1.5 1.5 1.5 1.5 1.5 1.5 1.5 1.5 1.5 1.5 
1.5 1.5 1.5 1.5 1.5 1.5 1.5 1.5 1.5 1.5 1.5 1.5 1.5 1.5 1.5 1.5 1.5 1.5 1.5 1.5 1.5 
1.5 1.5 1.5 1.5 1.5 1.5 1.5 1.5 1.5 1.5 1.5 1.5 1.5 1.5 1.5 1.5 1.5 1.5 1.5 1.5 1.5 
1.5 1.5 1.5 1.5 1.5 1.5 1.5 1.5 1.5 1.5 1.5 1.5 1.5 1.5 1.5 1.5 1.5 1.5 1.5 1.5 1.5 
1.5 1.5 1.5 1.5 1.5 1.5 1.5 1.5 1.5 1.5 1.5 1.5 1.5 1.5 1.5 1.5 1.5 1.5 1.5 1.5 1.5 
1.5 1.5 1.5 1.5 1.5 1.5 1.5 1.5 1.5 1.5 1.5 1.5 1.5 1.5 1.5 1.5 1.5 1.5 1.5 1.5 1.5 
1.5 1.5 1.5 1.5 1.5 1.5 1.5 1.5 1.5 1.5 1.5 1.5 1.5 1.5 1.5 1.5 1.5 1.5 1.5 1.5 1.5 
1.5 1.5 1.5 1.5 1.5 1.5 1.5 1.5 1.5 1.5 1.5 1.5 1.5 1.5 1.5 1.5 1.5 1.5 1.5 1.5 1.5 
1.5 1.5 1.5 1.5 1.5 1.5 1.5 1.5 1.5 1.5 1.5 1.5 1.5 1.5 1.5 1.5 1.5 1.5 1.5 1.5 1.5 
1.5 1.5 1.5 1.5 1.5 1.5 1.5 1.5 1.5 1.5 1.5 1.5 1.5 1.5 1.5 1.5 1.5 1.5 1.5 1.5 1.5 
1.5 1.5 1.5 1.5 1.5 1.5 1.5 1.5 1.5 1.5 1.5 1.5 1.5 1.5 1.5 1.5 1.5 1.5 1.5 1.5 1.5 
1.5 1.5 1.5 1.5 1.5 1.5 1.5 1.5 1.5 1.5 1.5 1.5 1.5 1.5 1.5 1.5 1.5 1.5 1.5 1.5 1.5 
1.5 1.5 1.5 1.5 1.5 1.5 1.5 1.5 1.5 1.5 1.5 1.5 1.5 1.5 1.5 1.5 1.5 1.5 1.5 1.5 1.5 
1.5 1.5 1.5 1.5 1.5 1.5 1.5 1.5 1.5 1.5 1.5 1.5 1.5 1.5 1.5 1.5 1.5 1.5 1.5 1.5 1.5 
1.5 1.5 1.5 1.5 1.5 1.5 1.5 1.5 1.5 1.5 1.5 1.5 1.5 1.5 1.5 1.5 1.5 1.5 1.5 1.5 1.5 
1.5 1.5 1.5 1.5 1.5 1.5 1.5 1.5 1.5 1.5 1.5 1.5 1.5 1.5 1.5 1.5 1.5 1.5 1.5 1.5 1.5 
1.5 1.5 1.5 1.5 1.5 1.5 1.5 1.5 1.5 1.5 1.5 1.5 1.5 1.5 1.5 1.5 1.5 1.5 1.5 1.5 1.5 
1.5 1.5 1.5 1.5 1.5 1.5 1.5 1.5 1.5 1.5 1.5 1.5 1.5 1.5 1.5 1.5 1.5 1.5 1.5 1.5 1.5 
1.5 1.5 1.5 1.5 1.5 1.5 1.5 1.5 1.5 1.5 1.5 1.5 1.5 1.5 1.5 1.5 1.5 1.5 1.5 1.5 1.5 
1.5 1.5 1.5 1.5 1.5 1.5 1.5 1.5 1.5 1.5 1.5 1.5 1.5 1.5 1.5 1.5 1.5 1.5 1.5 1.5 1.5 
1.5 1.5 1.5 1.5 1.5 1.5 1.5 1.5 1.5 1.5 1.5 1.5 1.5 1.5 1.5 1.5 1.5 1.5 1.5 1.5 1.5 
1.5 1.5 1.5 1.5 1.5 1.5 1.5 1.5 1.5 1.5 1.5 1.5 1.5 1.5 1.5 1.5 1.5 1.5 1.5 1.5 1.5 
1.5 1.5 1.5 1.5 1.5 1.5 1.5 1.5 1.5 1.5 1.5 1.5 1.5 1.5 1.5 1.5 1.5 1.5 1.5 1.5 1.5 
1.5 1.5 1.5 1.5 1.5 1.5 1.5 1.5 1.5 1.5 1.5 1.5 1.5 1.5 1.5 1.5 1.5 1.5 1.5 1.5 1.5 
1.5 1.5 1.5 1.5 1.5 1.5 1.5 1.5 1.5 1.5 1.5 1.5 1.5 1.5 1.5 1.5 1.5 1.5 1.5 1.5 1.5 
1.5 1.5 1.5 1.5 1.5 1.5 1.5 1.5 1.5 1.5 1.5 1.5 1.5 1.5 1.5 1.5 1.5 1.5 1.5 1.5 1.5 
1.5 1.5 1.5 1.5 1.5 1.5 1.5 1.5 1.5 1.5 1.5 1.5 1.5 1.5 1.5 1.5 1.5 1.5 1.5 1.5 1.5 
1.5 1.5 1.5 1.5 1.5 1.5 1.5 1.5 1.5 1.5 1.5 1.5 1.5 1.5 1.5 1.5 1.5 1.5 1.5 1.5 1.5 
1.5 1.5 1.5 1.5 1.5 1.5 1.5 1.5 1.5 1.5 1.5 1.5 1.5 1.5 1.5 1.5 1.5 1.5 1.5 1.5 1.5 
1.5 1.5 1.5 1.5 1.5 1.5 1.5 1.5 1.5 1.5 1.5 1.5 1.5 1.5 1.5 1.5 1.5 1.5 1.5 1.5 1.5 
1.5 1.5 1.5 1.5 1.5 1.5 1.5 1.5 1.5 1.5 1.5 1.5 1.5 1.5 1.5 1.5 1.5 1.5 1.5 1.5 1.5 
1.5 1.5 1.5 1.5 1.5 1.5 1.5 1.5 1.5 1.5 1.5 1.5 1.5 1.5 1.5 1.5 1.5 1.5 1.5 1.5 1.5 
1.5 1.5 1.5 1.5 1.5 1.5 1.5 1.5 1.5 1.5 1.5 1.5 1.5 1.5 1.5 1.5 1.5 1.5 1.5 1.5 1.5 
1.5 1.5 1.5 1.5 1.5 1.5 1.5 1.5 1.5 1.5 1.5 1.5 1.5 1.5 1.5 1.5 1.5 1.5 1.5 1.5 1.5 
1.5 1.5 1.5 1.5 1.5 1.5 1.5 1.5 1.5 1.5 1.5 1.5 1.5 1.5 1.5 1.5 1.5 1.5 1.5 1.5 1.5 
1.5 1.5 1.5 1.5 1.5 1.5 1.5 1.5 1.5 1.5 1.5 1.5 1.5 1.5 1.5 1.5 1.5 1.5 1.5 1.5 1.5 
1.5 1.5 1.5 1.5 1.5 1.5 1.5 1.5 1.5 1.5 1.5 1.5 1.5 1.5 1.5 1.5 1.5 1.5 1.5 1.5 1.5 
1.5 1.5 1.5 1.5 1.5 1.5 1.5 1.5 1.5 1.5 1.5 1.5 1.5 1.5 1.5 1.5 1.5 1.5 1.5 1.5 1.5 
1.5 1.5 1.5 1.5 1.5 1.5 1.5 1.5 1.5 1.5 1.5 1.5 1.5 1.5 1.5 1.5 1.5 1.5 1.5 1.5 1.5 
1.5 1.5 1.5 1.5 1.5 1.5 1.5 1.5 1.5 1.5 1.5 1.5 1.5 1.5 1.5 1.5 1.5 1.5 1.5 1.5 1.5 
1.5 1.5 1.5 1.5 1.5 1.5 1.5 1.5 1.5 1.5 1.5 1.5 1.5 1.5 1.5 1.5 1.5 1.5 1.5 1.5 1.5 
</DataArray>
<DataArray Name="ne" NumberOfComponents="1" format="ascii" type="Float64">
1 1 1 1 1 1 1 1 1 1 1 1 1 1 1 1 1 1 1 1 1 
1 1 1 1 1 1 1 1 1 1 1 1 1 1 1 1 1 1 1 1 1 
1 1 1 1 1 1 1 1 1 1 1 1 1 1 1 1 1 1 1 1 1 
1 1 1 1 1 1 1 1 1 1 1 1 1 1 1 1 1 1 1 1 1 
1 1 1 1 1 1 1 1 1 1 1 1 1 1 1 1 1 1 1 1 1 
1 1 1 1 1 1 1 1 1 1 1 1 1 1 1 1 1 1 1 1 1 
1 1 1 1 1 1 1 1 1 1 1 1 1 1 1 1 1 1 1 1 1 
1 1 1 1 1 1 1 1 1 1 1 1 1 1 1 1 1 1 1 1 1 
1 1 1 1 1 1 1 1 1 1 1 1 1 1 1 1 1 1 1 1 1 
1 1 1 1 1 1 1 1 1 1 1 1 1 1 1 1 1 1 1 1 1 
1 1 1 1 1 1 1 1 1 1 1 1 1 1 1 1 1 1 1 1 1 
1 1 1 1 1 1 1 1 1 1 1 1 1 1 1 1 1 1 1 1 1 
1 1 1 1 1 1 1 1 1 1 1 1 1 1 1 1 1 1 1 1 1 
1 1 1 1 1 1 1 1 1 1 1 1 1 1 1 1 1 1 1 1 1 
1 1 1 1 1 1 1 1 1 1 1 1 1 1 1 1 1 1 1 1 1 
1 1 1 1 1 1 1 1 1 1 1 1 1 1 1 1 1 1 1 1 1 
1 1 1 1 1 1 1 1 1 1 1 1 1 1 1 1 1 1 1 1 1 
1 1 1 1 1 1 1 1 1 1 1 1 1 1 1 1 1 1 1 1 1 
1 1 1 1 1 1 1 1 1 1 1 1 1 1 1 1 1 1 1 1 1 
1 1 1 1 1 1 1 1 1 1 1 1 1 1 1 1 1 1 1 1 1 
1 1 1 1 1 1 1 1 1 1 1 1 1 1 1 1 1 1 1 1 1 
1 1 1 1 1 1 1 1 1 1 1 1 1 1 1 1 1 1 1 1 1 
1 1 1 1 1 1 1 1 1 1 1 1 1 1 1 1 1 1 1 1 1 
1 1 1 1 1 1 1 1 1 1 1 1 1 1 1 1 1 1 1 1 1 
1 1 1 1 1 1 1 1 1 1 1 1 1 1 1 1 1 1 1 1 1 
1 1 1 1 1 1 1 1 1 1 1 1 1 1 1 1 1 1 1 1 1 
1 1 1 1 1 1 1 1 1 1 1 1 1 1 1 1 1 1 1 1 1 
1 1 1 1 1 1 1 1 1 1 1 1 1 1 1 1 1 1 1 1 1 
1 1 1 1 1 1 1 1 1 1 1 1 1 1 1 1 1 1 1 1 1 
1 1 1 1 1 1 1 1 1 1 1 1 1 1 1 1 1 1 1 1 1 
1 1 1 1 1 1 1 1 1 1 1 1 1 1 1 1 1 1 1 1 1 
1 1 1 1 1 1 1 1 1 1 1 1 1 1 1 1 1 1 1 1 1 
1 1 1 1 1 1 1 1 1 1 1 1 1 1 1 1 1 1 1 1 1 
1 1 1 1 1 1 1 1 1 1 1 1 1 1 1 1 1 1 1 1 1 
1 1 1 1 1 1 1 1 1 1 1 1 1 1 1 1 1 1 1 1 1 
1 1 1 1 1 1 1 1 1 1 1 1 1 1 1 1 1 1 1 1 1 
1 1 1 1 1 1 1 1 1 1 1 1 1 1 1 1 1 1 1 1 1 
1 1 1 1 1 1 1 1 1 1 1 1 1 1 1 1 1 1 1 1 1 
1 1 1 1 1 1 1 1 1 1 1 1 1 1 1 1 1 1 1 1 1 
1 1 1 1 1 1 1 1 1 1 1 1 1 1 1 1 1 1 1 1 1 
1 1 1 1 1 1 1 1 1 1 1 1 1 1 1 1 1 1 1 1 1 
</DataArray>
</PointData>
</Piece>
</ImageData>
</VTKFile>
