<VTKFile type="ImageData">
<ImageData Origin="0 -10 0" Spacing="0.5 0.5 1" WholeExtent="0 20 0 40 0 0">
<Piece Extent="0 20 0 40 0 0">
<PointData>
<DataArray Name="f" NumberOfComponents="1" format="ascii" type="Float64">
4.527e-11 7.516e-13 2.314e-17 4.737e-20 0 0 0 0 0 0 0 0 0 0 0 0 0 0 0 0 0 
1.619e-08 3.478e-10 1.571e-13 1.402e-15 0 0 0 0 0 0 0 0 0 0 0 0 0 0 0 0 0 
4.111e-07 1.77e-08 1.213e-10 2.709e-12 1.244e-16 5.096e-19 0 0 0 0 0 0 0 0 0 0 0 0 0 0 0 
6.245e-06 6.767e-07 3.752e-08 1.08e-09 7.291e-13 1.306e-14 1.337e-16 6.249e-19 0 0 0 0 0 0 0 0 0 0 0 0 0 
3.745e-05 7.25e-06 7.974e-07 4.632e-08 4.897e-10 2.197e-11 6.881e-13 1.407e-14 1.679e-16 9.398e-19 0 0 0 0 0 0 0 0 0 0 0 
0.0001246 4.215e-05 8.923e-06 1.147e-06 7.396e-08 3.677e-09 2.186e-10 9.177e-12 2.554e-13 4.238e-15 3.417e-17 8.031e-20 0 0 0 0 0 0 0 0 0 
0.000241 0.0001294 4.528e-05 1.012e-05 1.321e-06 1.247e-07 1.127e-08 7.204e-10 3.061e-11 7.779e-13 9.655e-15 3.597e-17 0 0 0 0 0 0 0 0 0 
0.0002969 0.0002433 0.0001333 4.807e-05 1.088e-05 1.747e-06 2.3e-07 2.138e-08 1.323e-09 4.93e-11 9.115e-13 5.32e-15 1.807e-18 0 0 0 0 0 0 0 0 
0.0002412 0.0002968 0.0002477 0.0001385 5.053e-05 1.283e-05 2.429e-06 3.237e-07 2.876e-08 1.551e-09 4.237e-11 3.868e-13 2.598e-16 0 0 0 0 0 0 0 0 
0.0001299 0.0002389 0.0003001 0.0002547 0.0001438 5.548e-05 1.511e-05 2.879e-06 3.662e-07 2.851e-08 1.15e-09 1.645e-11 2.182e-14 0 0 0 0 0 0 0 0 
4.567e-05 0.0001262 0.0002384 0.0003045 0.0002614 0.0001507 5.941e-05 1.626e-05 2.97e-06 3.35e-07 2.004e-08 4.51e-10 1.178e-12 0 0 0 0 0 0 0 0 
1.01e-05 4.269e-05 0.0001226 0.0002368 0.0003081 0.0002655 0.0001536 6.094e-05 1.611e-05 2.652e-06 2.37e-07 8.446e-09 4.33e-11 0 0 0 0 0 0 0 0 
1.319e-06 8.833e-06 3.949e-05 0.0001177 0.0002351 0.0003074 0.0002658 0.0001551 6.006e-05 1.459e-05 1.967e-06 1.121e-07 1.125e-09 0 0 0 0 0 0 0 0 
9.222e-08 1.039e-06 7.554e-06 3.608e-05 0.0001137 0.0002323 0.0003082 0.0002693 0.0001552 5.649e-05 1.167e-05 1.075e-06 2.113e-08 3.148e-20 0 0 0 0 0 0 0 
2.928e-09 6.215e-08 7.847e-07 6.419e-06 3.337e-05 0.0001119 0.0002353 0.0003155 0.0002764 0.0001536 4.955e-05 7.524e-06 2.898e-07 5.348e-17 0 0 0 0 0 0 0 
3.072e-11 1.577e-09 3.803e-08 6.02e-07 5.506e-06 3.282e-05 0.0001142 0.0002419 0.0003305 0.0002879 0.0001488 3.814e-05 2.905e-06 6.261e-14 2.451e-20 0 0 0 0 0 0 
4.188e-14 1.248e-11 6.364e-10 2.546e-08 4.466e-07 5.442e-06 3.31e-05 0.0001147 0.0002524 0.000356 0.0003051 0.0001369 2.105e-05 4.88e-11 4.935e-16 8.028e-20 0 0 0 0 0 
1.522e-18 1.302e-14 1.493e-12 3.682e-10 1.354e-08 4.528e-07 5.135e-06 3.039e-05 0.0001121 0.0002673 0.0003986 0.00033 0.0001074 2.378e-08 3.239e-12 8.702e-16 4.572e-20 0 0 0 0 
0 0 1.043e-16 7.901e-13 6.684e-11 1.522e-08 3.43e-07 3.663e-06 2.402e-05 0.0001031 0.000287 0.0004771 0.0003657 6.416e-06 6.84e-09 3.275e-12 2.929e-16 0 0 0 0 
0 0 0 0 1.431e-14 1.026e-10 5.006e-09 1.109e-07 1.494e-06 1.326e-05 7.877e-05 0.0003039 0.0006933 0.0007133 4.336e-06 4.357e-09 7.265e-13 1.2e-17 0 0 0 
0 0 0 0 0 0 0 0 0 2.687e-18 1.754e-13 1.653e-09 3.998e-06 0.003589 0.000705 2.098e-06 7.44e-10 2.329e-14 2.413e-20 0 0 
0 0 0 0 0 0 0 0 0 0 5.748e-17 7.275e-13 2.328e-09 2.691e-06 0.0007486 0.0003508 9.224e-05 1.575e-05 1.796e-06 1.348e-07 7.309e-09 
0 0 0 0 0 0 0 0 0 0 0 1.455e-16 6.127e-13 9.204e-10 0.0003596 0.0005085 0.0003165 0.0001159 2.739e-05 4.225e-06 4.646e-07 
0 0 0 0 0 0 0 0 0 0 0 1.183e-20 6.475e-17 1.259e-13 0.0001033 0.0003388 0.0004235 0.0002904 0.0001238 3.401e-05 6.548e-06 
0 0 0 0 0 0 0 0 0 0 0 0 0 5.999e-18 1.976e-05 0.0001368 0.0003153 0.0003764 0.0002716 0.0001253 3.996e-05 
0 0 0 0 0 0 0 0 0 0 0 0 0 0 2.651e-06 3.719e-05 0.0001501 0.0002973 0.0003475 0.0002584 0.0001313 
0 0 0 0 0 0 0 0 0 0 0 0 0 0 2.563e-07 7.159e-06 4.885e-05 0.0001551 0.0002844 0.0003299 0.0002584 
0 0 0 0 0 0 0 0 0 0 0 0 0 0 1.804e-08 9.979e-07 1.124e-05 5.579e-05 0.0001564 0.0002758 0.0003243 
0 0 0 0 0 0 0 0 0 0 0 0 0 0 9.247e-10 1.012e-07 1.85e-06 1.409e-05 5.918e-05 0.0001555 0.0002685 
0 0 0 0 0 0 0 0 0 0 0 0 0 0 3.411e-11 7.416e-09 2.173e-07 2.5e-06 1.552e-05 5.974e-05 0.000149 
0 0 0 0 0 0 0 0 0 0 0 0 0 0 8.858e-13 3.84e-10 1.788e-08 3.078e-07 2.791e-06 1.556e-05 5.535e-05 
0 0 0 0 0 0 0 0 0 0 0 0 0 0 1.56e-14 1.355e-11 9.968e-10 2.549e-08 3.351e-07 2.686e-06 1.352e-05 
0 0 0 0 0 0 0 0 0 0 0 0 0 0 1.758e-16 3.071e-13 3.557e-11 1.346e-09 2.558e-08 2.937e-07 2.088e-06 
0 0 0 0 0 0 0 0 0 0 0 0 0 0 1.15e-18 4.058e-15 7.39e-13 4.14e-11 1.14e-09 1.881e-08 1.9e-07 
0 0 0 0 0 0 0 0 0 0 0 0 0 0 0 2.626e-17 7.532e-15 6.299e-13 2.546e-11 6.121e-10 8.967e-09 
0 0 0 0 0 0 0 0 0 0 0 0 0 0 0 5.585e-20 2.552e-17 3.289e-15 2.037e-13 7.483e-12 1.688e-10 
0 0 0 0 0 0 0 0 0 0 0 0 0 0 0 0 0 6.7e-19 1.248e-16 1.077e-14 5.394e-13 
0 0 0 0 0 0 0 0 0 0 0 0 0 0 0 0 0 0 0 4.245e-19 9.521e-17 
0 0 0 0 0 0 0 0 0 0 0 0 0 0 0 0 0 0 0 0 0 
0 0 0 0 0 0 0 0 0 0 0 0 0 0 0 0 0 0 0 0 0 
0 0 0 0 0 0 0 0 0 0 0 0 0 0 0 0 0 0 0 0 0 
</DataArray>
<DataArray Name="E" NumberOfComponents="1" format="ascii" type="Float64">
6.247 5.997 5.497 4.997 4.498 3.998 3.498 2.999 2.499 1.999 1.5 1 0.5003 0.001012 -0.4982 -0.9977 -1.497 -1.997 -2.497 -2.996 -3.246 
6.247 5.997 5.497 4.997 4.498 3.998 3.498 2.999 2.499 1.999 1.5 1 0.5003 0.001012 -0.4982 -0.9977 -1.497 -1.997 -2.497 -2.996 -3.246 
6.247 5.997 5.497 4.997 4.498 3.998 3.498 2.999 2.499 1.999 1.5 1 0.5003 0.001012 -0.4982 -0.9977 -1.497 -1.997 -2.497 -2.996 -3.246 
6.247 5.997 5.497 4.997 4.498 3.998 3.498 2.999 2.499 1.999 1.5 1 0.5003 0.001012 -0.4982 -0.9977 -1.497 -1.997 -2.497 -2.996 -3.246 
6.247 5.997 5.497 4.997 4.498 3.998 3.498 2.999 2.499 1.999 1.5 1 0.5003 0.001012 -0.4982 -0.9977 -1.497 -1.997 -2.497 -2.996 -3.246 
6.247 5.997 5.497 4.997 4.498 3.998 3.498 2.999 2.499 1.999 1.5 1 0.5003 0.001012 -0.4982 -0.9977 -1.497 -1.997 -2.497 -2.996 -3.246 
6.247 5.997 5.497 4.997 4.498 3.998 3.498 2.999 2.499 1.999 1.5 1 0.5003 0.001012 -0.4982 -0.9977 -1.497 -1.997 -2.497 -2.996 -3.246 
6.247 5.997 5.497 4.997 4.498 3.998 3.498 2.999 2.499 1.999 1.5 1 0.5003 0.001012 -0.4982 -0.9977 -1.497 -1.997 -2.497 -2.996 -3.246 
6.247 5.997 5.497 4.997 4.498 3.998 3.498 2.999 2.499 1.999 1.5 1 0.5003 0.001012 -0.4982 -0.9977 -1.497 -1.997 -2.497 -2.996 -3.246 
6.247 5.997 5.497 4.997 4.498 3.998 3.498 2.999 2.499 1.999 1.5 1 0.5003 0.001012 -0.4982 -0.9977 -1.497 -1.997 -2.497 -2.996 -3.246 
6.247 5.997 5.497 4.997 4.498 3.998 3.498 2.999 2.499 1.999 1.5 1 0.5003 0.001012 -0.4982 -0.9977 -1.497 -1.997 -2.497 -2.996 -3.246 
6.247 5.997 5.497 4.997 4.498 3.998 3.498 2.999 2.499 1.999 1.5 1 0.5003 0.001012 -0.4982 -0.9977 -1.497 -1.997 -2.497 -2.996 -3.246 
6.247 5.997 5.497 4.997 4.498 3.998 3.498 2.999 2.499 1.999 1.5 1 0.5003 0.001012 -0.4982 -0.9977 -1.497 -1.997 -2.497 -2.996 -3.246 
6.247 5.997 5.497 4.997 4.498 3.998 3.498 2.999 2.499 1.999 1.5 1 0.5003 0.001012 -0.4982 -0.9977 -1.497 -1.997 -2.497 -2.996 -3.246 
6.247 5.997 5.497 4.997 4.498 3.998 3.498 2.999 2.499 1.999 1.5 1 0.5003 0.001012 -0.4982 -0.9977 -1.497 -1.997 -2.497 -2.996 -3.246 
6.247 5.997 5.497 4.997 4.498 3.998 3.498 2.999 2.499 1.999 1.5 1 0.5003 0.001012 -0.4982 -0.9977 -1.497 -1.997 -2.497 -2.996 -3.246 
6.247 5.997 5.497 4.997 4.498 3.998 3.498 2.999 2.499 1.999 1.5 1 0.5003 0.001012 -0.4982 -0.9977 -1.497 -1.997 -2.497 -2.996 -3.246 
6.247 5.997 5.497 4.997 4.498 3.998 3.498 2.999 2.499 1.999 1.5 1 0.5003 0.001012 -0.4982 -0.9977 -1.497 -1.997 -2.497 -2.996 -3.246 
6.247 5.997 5.497 4.997 4.498 3.998 3.498 2.999 2.499 1.999 1.5 1 0.5003 0.001012 -0.4982 -0.9977 -1.497 -1.997 -2.497 -2.996 -3.246 
6.247 5.997 5.497 4.997 4.498 3.998 3.498 2.999 2.499 1.999 1.5 1 0.5003 0.001012 -0.4982 -0.9977 -1.497 -1.997 -2.497 -2.996 -3.246 
6.247 5.997 5.497 4.997 4.498 3.998 3.498 2.999 2.499 1.999 1.5 1 0.5003 0.001012 -0.4982 -0.9977 -1.497 -1.997 -2.497 -2.996 -3.246 
6.247 5.997 5.497 4.997 4.498 3.998 3.498 2.999 2.499 1.999 1.5 1 0.5003 0.001012 -0.4982 -0.9977 -1.497 -1.997 -2.497 -2.996 -3.246 
6.247 5.997 5.497 4.997 4.498 3.998 3.498 2.999 2.499 1.999 1.5 1 0.5003 0.001012 -0.4982 -0.9977 -1.497 -1.997 -2.497 -2.996 -3.246 
6.247 5.997 5.497 4.997 4.498 3.998 3.498 2.999 2.499 1.999 1.5 1 0.5003 0.001012 -0.4982 -0.9977 -1.497 -1.997 -2.497 -2.996 -3.246 
6.247 5.997 5.497 4.997 4.498 3.998 3.498 2.999 2.499 1.999 1.5 1 0.5003 0.001012 -0.4982 -0.9977 -1.497 -1.997 -2.497 -2.996 -3.246 
6.247 5.997 5.497 4.997 4.498 3.998 3.498 2.999 2.499 1.999 1.5 1 0.5003 0.001012 -0.4982 -0.9977 -1.497 -1.997 -2.497 -2.996 -3.246 
6.247 5.997 5.497 4.997 4.498 3.998 3.498 2.999 2.499 1.999 1.5 1 0.5003 0.001012 -0.4982 -0.9977 -1.497 -1.997 -2.497 -2.996 -3.246 
6.247 5.997 5.497 4.997 4.498 3.998 3.498 2.999 2.499 1.999 1.5 1 0.5003 0.001012 -0.4982 -0.9977 -1.497 -1.997 -2.497 -2.996 -3.246 
6.247 5.997 5.497 4.997 4.498 3.998 3.498 2.999 2.499 1.999 1.5 1 0.5003 0.001012 -0.4982 -0.9977 -1.497 -1.997 -2.497 -2.996 -3.246 
6.247 5.997 5.497 4.997 4.498 3.998 3.498 2.999 2.499 1.999 1.5 1 0.5003 0.001012 -0.4982 -0.9977 -1.497 -1.997 -2.497 -2.996 -3.246 
6.247 5.997 5.497 4.997 4.498 3.998 3.498 2.999 2.499 1.999 1.5 1 0.5003 0.001012 -0.4982 -0.9977 -1.497 -1.997 -2.497 -2.996 -3.246 
6.247 5.997 5.497 4.997 4.498 3.998 3.498 2.999 2.499 1.999 1.5 1 0.5003 0.001012 -0.4982 -0.9977 -1.497 -1.997 -2.497 -2.996 -3.246 
6.247 5.997 5.497 4.997 4.498 3.998 3.498 2.999 2.499 1.999 1.5 1 0.5003 0.001012 -0.4982 -0.9977 -1.497 -1.997 -2.497 -2.996 -3.246 
6.247 5.997 5.497 4.997 4.498 3.998 3.498 2.999 2.499 1.999 1.5 1 0.5003 0.001012 -0.4982 -0.9977 -1.497 -1.997 -2.497 -2.996 -3.246 
6.247 5.997 5.497 4.997 4.498 3.998 3.498 2.999 2.499 1.999 1.5 1 0.5003 0.001012 -0.4982 -0.9977 -1.497 -1.997 -2.497 -2.996 -3.246 
6.247 5.997 5.497 4.997 4.498 3.998 3.498 2.999 2.499 1.999 1.5 1 0.5003 0.001012 -0.4982 -0.9977 -1.497 -1.997 -2.497 -2.996 -3.246 
6.247 5.997 5.497 4.997 4.498 3.998 3.498 2.999 2.499 1.999 1.5 1 0.5003 0.001012 -0.4982 -0.9977 -1.497 -1.997 -2.497 -2.996 -3.246 
6.247 5.997 5.497 4.997 4.498 3.998 3.498 2.999 2.499 1.999 1.5 1 0.5003 0.001012 -0.4982 -0.9977 -1.497 -1.997 -2.497 -2.996 -3.246 
6.247 5.997 5.497 4.997 4.498 3.998 3.498 2.999 2.499 1.999 1.5 1 0.5003 0.001012 -0.4982 -0.9977 -1.497 -1.997 -2.497 -2.996 -3.246 
6.247 5.997 5.497 4.997 4.498 3.998 3.498 2.999 2.499 1.999 1.5 1 0.5003 0.001012 -0.4982 -0.9977 -1.497 -1.997 -2.497 -2.996 -3.246 
6.247 5.997 5.497 4.997 4.498 3.998 3.498 2.999 2.499 1.999 1.5 1 0.5003 0.001012 -0.4982 -0.9977 -1.497 -1.997 -2.497 -2.996 -3.246 
</DataArray>
<DataArray Name="ne" NumberOfComponents="1" format="ascii" type="Float64">
0.0006 0.0006031 0.0006081 0.0006128 0.0006186 0.000625 0.0006339 0.0006438 0.000655 0.0006679 0.0006825 0.00069 0.0006373 0.00218 0.001038 0.0007361 0.0007235 0.0007033 0.0006851 0.000669 0.0006612 
0.0006 0.0006031 0.0006081 0.0006128 0.0006186 0.000625 0.0006339 0.0006438 0.000655 0.0006679 0.0006825 0.00069 0.0006373 0.00218 0.001038 0.0007361 0.0007235 0.0007033 0.0006851 0.000669 0.0006612 
0.0006 0.0006031 0.0006081 0.0006128 0.0006186 0.000625 0.0006339 0.0006438 0.000655 0.0006679 0.0006825 0.00069 0.0006373 0.00218 0.001038 0.0007361 0.0007235 0.0007033 0.0006851 0.000669 0.0006612 
0.0006 0.0006031 0.0006081 0.0006128 0.0006186 0.000625 0.0006339 0.0006438 0.000655 0.0006679 0.0006825 0.00069 0.0006373 0.00218 0.001038 0.0007361 0.0007235 0.0007033 0.0006851 0.000669 0.0006612 
0.0006 0.0006031 0.0006081 0.0006128 0.0006186 0.000625 0.0006339 0.0006438 0.000655 0.0006679 0.0006825 0.00069 0.0006373 0.00218 0.001038 0.0007361 0.0007235 0.0007033 0.0006851 0.000669 0.0006612 
0.0006 0.0006031 0.0006081 0.0006128 0.0006186 0.000625 0.0006339 0.0006438 0.000655 0.0006679 0.0006825 0.00069 0.0006373 0.00218 0.001038 0.0007361 0.0007235 0.0007033 0.0006851 0.000669 0.0006612 
0.0006 0.0006031 0.0006081 0.0006128 0.0006186 0.000625 0.0006339 0.0006438 0.000655 0.0006679 0.0006825 0.00069 0.0006373 0.00218 0.001038 0.0007361 0.0007235 0.0007033 0.0006851 0.000669 0.0006612 
0.0006 0.0006031 0.0006081 0.0006128 0.0006186 0.000625 0.0006339 0.0006438 0.000655 0.0006679 0.0006825 0.00069 0.0006373 0.00218 0.001038 0.0007361 0.0007235 0.0007033 0.0006851 0.000669 0.0006612 
0.0006 0.0006031 0.0006081 0.0006128 0.0006186 0.000625 0.0006339 0.0006438 0.000655 0.0006679 0.0006825 0.00069 0.0006373 0.00218 0.001038 0.0007361 0.0007235 0.0007033 0.0006851 0.000669 0.0006612 
0.0006 0.0006031 0.0006081 0.0006128 0.0006186 0.000625 0.0006339 0.0006438 0.000655 0.0006679 0.0006825 0.00069 0.0006373 0.00218 0.001038 0.0007361 0.0007235 0.0007033 0.0006851 0.000669 0.0006612 
0.0006 0.0006031 0.0006081 0.0006128 0.0006186 0.000625 0.0006339 0.0006438 0.000655 0.0006679 0.0006825 0.00069 0.0006373 0.00218 0.001038 0.0007361 0.0007235 0.0007033 0.0006851 0.000669 0.0006612 
0.0006 0.0006031 0.0006081 0.0006128 0.0006186 0.000625 0.0006339 0.0006438 0.000655 0.0006679 0.0006825 0.00069 0.0006373 0.00218 0.001038 0.0007361 0.0007235 0.0007033 0.0006851 0.000669 0.0006612 
0.0006 0.0006031 0.0006081 0.0006128 0.0006186 0.000625 0.0006339 0.0006438 0.000655 0.0006679 0.0006825 0.00069 0.0006373 0.00218 0.001038 0.0007361 0.0007235 0.0007033 0.0006851 0.000669 0.0006612 
0.0006 0.0006031 0.0006081 0.0006128 0.0006186 0.000625 0.0006339 0.0006438 0.000655 0.0006679 0.0006825 0.00069 0.0006373 0.00218 0.001038 0.0007361 0.0007235 0.0007033 0.0006851 0.000669 0.0006612 
0.0006 0.0006031 0.0006081 0.0006128 0.0006186 0.000625 0.0006339 0.0006438 0.000655 0.0006679 0.0006825 0.00069 0.0006373 0.00218 0.001038 0.0007361 0.0007235 0.0007033 0.0006851 0.000669 0.0006612 
0.0006 0.0006031 0.0006081 0.0006128 0.0006186 0.000625 0.0006339 0.0006438 0.000655 0.0006679 0.0006825 0.00069 0.0006373 0.00218 0.001038 0.0007361 0.0007235 0.0007033 0.0006851 0.000669 0.0006612 
0.0006 0.0006031 0.0006081 0.0006128 0.0006186 0.000625 0.0006339 0.0006438 0.000655 0.0006679 0.0006825 0.00069 0.0006373 0.00218 0.001038 0.0007361 0.0007235 0.0007033 0.0006851 0.000669 0.0006612 
0.0006 0.0006031 0.0006081 0.0006128 0.0006186 0.000625 0.0006339 0.0006438 0.000655 0.0006679 0.0006825 0.00069 0.0006373 0.00218 0.001038 0.0007361 0.0007235 0.0007033 0.0006851 0.000669 0.0006612 
0.0006 0.0006031 0.0006081 0.0006128 0.0006186 0.000625 0.0006339 0.0006438 0.000655 0.0006679 0.0006825 0.00069 0.0006373 0.00218 0.001038 0.0007361 0.0007235 0.0007033 0.0006851 0.000669 0.0006612 
0.0006 0.0006031 0.0006081 0.0006128 0.0006186 0.000625 0.0006339 0.0006438 0.000655 0.0006679 0.0006825 0.00069 0.0006373 0.00218 0.001038 0.0007361 0.0007235 0.0007033 0.0006851 0.000669 0.0006612 
0.0006 0.0006031 0.0006081 0.0006128 0.0006186 0.000625 0.0006339 0.0006438 0.000655 0.0006679 0.0006825 0.00069 0.0006373 0.00218 0.001038 0.0007361 0.0007235 0.0007033 0.0006851 0.000669 0.0006612 
0.0006 0.0006031 0.0006081 0.0006128 0.0006186 0.000625 0.0006339 0.0006438 0.000655 0.0006679 0.0006825 0.00069 0.0006373 0.00218 0.001038 0.0007361 0.0007235 0.0007033 0.0006851 0.000669 0.0006612 
0.0006 0.0006031 0.0006081 0.0006128 0.0006186 0.000625 0.0006339 0.0006438 0.000655 0.0006679 0.0006825 0.00069 0.0006373 0.00218 0.001038 0.0007361 0.0007235 0.0007033 0.0006851 0.000669 0.0006612 
0.0006 0.0006031 0.0006081 0.0006128 0.0006186 0.000625 0.0006339 0.0006438 0.000655 0.0006679 0.0006825 0.00069 0.0006373 0.00218 0.001038 0.0007361 0.0007235 0.0007033 0.0006851 0.000669 0.0006612 
0.0006 0.0006031 0.0006081 0.0006128 0.0006186 0.000625 0.0006339 0.0006438 0.000655 0.0006679 0.0006825 0.00069 0.0006373 0.00218 0.001038 0.0007361 0.0007235 0.0007033 0.0006851 0.000669 0.0006612 
0.0006 0.0006031 0.0006081 0.0006128 0.0006186 0.000625 0.0006339 0.0006438 0.000655 0.0006679 0.0006825 0.00069 0.0006373 0.00218 0.001038 0.0007361 0.0007235 0.0007033 0.0006851 0.000669 0.0006612 
0.0006 0.0006031 0.0006081 0.0006128 0.0006186 0.000625 0.0006339 0.0006438 0.000655 0.0006679 0.0006825 0.00069 0.0006373 0.00218 0.001038 0.0007361 0.0007235 0.0007033 0.0006851 0.000669 0.0006612 
0.0006 0.0006031 0.0006081 0.0006128 0.0006186 0.000625 0.0006339 0.0006438 0.000655 0.0006679 0.0006825 0.00069 0.0006373 0.00218 0.001038 0.0007361 0.0007235 0.0007033 0.0006851 0.000669 0.0006612 
0.0006 0.0006031 0.0006081 0.0006128 0.0006186 0.000625 0.0006339 0.0006438 0.000655 0.0006679 0.0006825 0.00069 0.0006373 0.00218 0.001038 0.0007361 0.0007235 0.0007033 0.0006851 0.000669 0.0006612 
0.0006 0.0006031 0.0006081 0.0006128 0.0006186 0.000625 0.0006339 0.0006438 0.000655 0.0006679 0.0006825 0.00069 0.0006373 0.00218 0.001038 0.0007361 0.0007235 0.0007033 0.0006851 0.000669 0.0006612 
0.0006 0.0006031 0.0006081 0.0006128 0.0006186 0.000625 0.0006339 0.0006438 0.000655 0.0006679 0.0006825 0.00069 0.0006373 0.00218 0.001038 0.0007361 0.0007235 0.0007033 0.0006851 0.000669 0.0006612 
0.0006 0.0006031 0.0006081 0.0006128 0.0006186 0.000625 0.0006339 0.0006438 0.000655 0.0006679 0.0006825 0.00069 0.0006373 0.00218 0.001038 0.0007361 0.0007235 0.0007033 0.0006851 0.000669 0.0006612 
0.0006 0.0006031 0.0006081 0.0006128 0.0006186 0.000625 0.0006339 0.0006438 0.000655 0.0006679 0.0006825 0.00069 0.0006373 0.00218 0.001038 0.0007361 0.0007235 0.0007033 0.0006851 0.000669 0.0006612 
0.0006 0.0006031 0.0006081 0.0006128 0.0006186 0.000625 0.0006339 0.0006438 0.000655 0.0006679 0.0006825 0.00069 0.0006373 0.00218 0.001038 0.0007361 0.0007235 0.0007033 0.0006851 0.000669 0.0006612 
0.0006 0.0006031 0.0006081 0.0006128 0.0006186 0.000625 0.0006339 0.0006438 0.000655 0.0006679 0.0006825 0.00069 0.0006373 0.00218 0.001038 0.0007361 0.0007235 0.0007033 0.0006851 0.000669 0.0006612 
0.0006 0.0006031 0.0006081 0.0006128 0.0006186 0.000625 0.0006339 0.0006438 0.000655 0.0006679 0.0006825 0.00069 0.0006373 0.00218 0.001038 0.0007361 0.0007235 0.0007033 0.0006851 0.000669 0.0006612 
0.0006 0.0006031 0.0006081 0.0006128 0.0006186 0.000625 0.0006339 0.0006438 0.000655 0.0006679 0.0006825 0.00069 0.0006373 0.00218 0.001038 0.0007361 0.0007235 0.0007033 0.0006851 0.000669 0.0006612 
0.0006 0.0006031 0.0006081 0.0006128 0.0006186 0.000625 0.0006339 0.0006438 0.000655 0.0006679 0.0006825 0.00069 0.0006373 0.00218 0.001038 0.0007361 0.0007235 0.0007033 0.0006851 0.000669 0.0006612 
0.0006 0.0006031 0.0006081 0.0006128 0.0006186 0.000625 0.0006339 0.0006438 0.000655 0.0006679 0.0006825 0.00069 0.0006373 0.00218 0.001038 0.0007361 0.0007235 0.0007033 0.0006851 0.000669 0.0006612 
0.0006 0.0006031 0.0006081 0.0006128 0.0006186 0.000625 0.0006339 0.0006438 0.000655 0.0006679 0.0006825 0.00069 0.0006373 0.00218 0.001038 0.0007361 0.0007235 0.0007033 0.0006851 0.000669 0.0006612 
0.0006 0.0006031 0.0006081 0.0006128 0.0006186 0.000625 0.0006339 0.0006438 0.000655 0.0006679 0.0006825 0.00069 0.0006373 0.00218 0.001038 0.0007361 0.0007235 0.0007033 0.0006851 0.000669 0.0006612 
</DataArray>
</PointData>
</Piece>
</ImageData>
</VTKFile>
