<VTKFile type="ImageData">
<ImageData Origin="0 -10 0" Spacing="0.5 0.5 1" WholeExtent="0 20 0 40 0 0">
<Piece Extent="0 20 0 40 0 0">
<PointData>
<DataArray Name="f" NumberOfComponents="1" format="ascii" type="Float64">
2.808e-11 4.65e-13 1.404e-17 2.85e-20 0 0 0 0 0 0 0 0 0 0 0 0 0 0 0 0 0 
1.015e-08 2.172e-10 9.67e-14 8.596e-16 0 0 0 0 0 0 0 0 0 0 0 0 0 0 0 0 0 
2.58e-07 1.107e-08 7.532e-11 1.677e-12 7.572e-17 3.076e-19 0 0 0 0 0 0 0 0 0 0 0 0 0 0 0 
3.924e-06 4.245e-07 2.349e-08 6.739e-10 4.492e-13 8.013e-15 8.161e-17 3.785e-19 0 0 0 0 0 0 0 0 0 0 0 0 0 
2.354e-05 4.55e-06 4.996e-07 2.895e-08 3.039e-10 1.359e-11 4.245e-13 8.65e-15 1.027e-16 5.71e-19 0 0 0 0 0 0 0 0 0 0 0 
7.836e-05 2.646e-05 5.594e-06 7.178e-07 4.617e-08 2.285e-09 1.355e-10 5.671e-12 1.573e-13 2.598e-15 2.081e-17 4.836e-20 0 0 0 0 0 0 0 0 0 
0.0001515 8.122e-05 2.839e-05 6.337e-06 8.25e-07 7.764e-08 6.999e-09 4.461e-10 1.889e-11 4.78e-13 5.896e-15 2.172e-17 0 0 0 0 0 0 0 0 0 
0.0001866 0.0001527 8.357e-05 3.009e-05 6.796e-06 1.089e-06 1.43e-07 1.325e-08 8.176e-10 3.033e-11 5.575e-13 3.221e-15 1.061e-18 0 0 0 0 0 0 0 0 
0.0001515 0.0001862 0.0001552 8.668e-05 3.157e-05 7.996e-06 1.511e-06 2.007e-07 1.778e-08 9.549e-10 2.594e-11 2.346e-13 1.534e-16 0 0 0 0 0 0 0 0 
8.159e-05 0.0001498 0.000188 0.0001593 8.984e-05 3.458e-05 9.397e-06 1.786e-06 2.264e-07 1.756e-08 7.047e-10 9.994e-12 1.294e-14 0 0 0 0 0 0 0 0 
2.866e-05 7.91e-05 0.0001492 0.0001904 0.0001631 9.387e-05 3.694e-05 1.008e-05 1.836e-06 2.063e-07 1.228e-08 2.742e-10 7.012e-13 0 0 0 0 0 0 0 0 
6.332e-06 2.674e-05 7.667e-05 0.000148 0.0001922 0.0001654 9.547e-05 3.778e-05 9.96e-06 1.634e-06 1.452e-07 5.138e-09 2.587e-11 0 0 0 0 0 0 0 0 
8.268e-07 5.53e-06 2.469e-05 7.35e-05 0.0001466 0.0001913 0.0001651 9.61e-05 3.711e-05 8.982e-06 1.206e-06 6.82e-08 6.741e-10 0 0 0 0 0 0 0 0 
5.778e-08 6.504e-07 4.72e-06 2.251e-05 7.086e-05 0.0001445 0.0001913 0.0001668 9.588e-05 3.476e-05 7.148e-06 6.546e-07 1.269e-08 0 0 0 0 0 0 0 0 
1.834e-09 3.887e-08 4.9e-07 4.003e-06 2.078e-05 6.957e-05 0.000146 0.0001953 0.0001706 9.45e-05 3.034e-05 4.579e-06 1.743e-07 3.534e-18 0 0 0 0 0 0 0 
1.921e-11 9.858e-10 2.374e-08 3.752e-07 3.427e-06 2.039e-05 7.086e-05 0.0001497 0.0002039 0.000177 9.107e-05 2.321e-05 1.749e-06 6.409e-15 0 0 0 0 0 0 0 
2.586e-14 7.795e-12 3.967e-10 1.586e-08 2.777e-07 3.381e-06 2.053e-05 7.099e-05 0.0001557 0.0002188 0.0001867 8.327e-05 1.268e-05 7.745e-12 2.902e-17 0 0 0 0 0 0 
6.377e-19 8.16e-15 9.19e-13 2.294e-10 8.411e-09 2.812e-07 3.185e-06 1.881e-05 6.917e-05 0.0001643 0.000244 0.0002008 6.472e-05 5.858e-09 3.614e-13 5.243e-17 0 0 0 0 0 
0 0 4.38e-17 4.937e-13 4.098e-11 9.457e-09 2.129e-07 2.269e-06 1.484e-05 6.344e-05 0.0001758 0.0002905 0.0002205 2.459e-06 1.381e-09 3.57e-13 1.541e-17 0 0 0 0 
0 0 0 0 6.027e-15 6.39e-11 3.117e-09 6.888e-08 9.249e-07 8.179e-06 4.835e-05 0.0001855 0.0004203 0.0004285 1.521e-06 8.254e-10 6.642e-14 4.501e-19 0 0 0 
0 0 0 0 0 0 0 0 0 1.683e-19 2.68e-14 5.232e-10 2.344e-06 0.003586 0.0004151 6.668e-07 1.141e-10 1.465e-15 0 0 0 
0 0 0 0 0 0 0 0 0 0 5.238e-18 1.374e-13 8.143e-10 1.605e-06 0.0004472 0.0002099 5.534e-05 9.466e-06 1.08e-06 8.11e-08 4.395e-09 
0 0 0 0 0 0 0 0 0 0 0 1.583e-17 1.234e-13 3.162e-10 0.0002176 0.000308 0.0001919 7.04e-05 1.665e-05 2.569e-06 2.824e-07 
0 0 0 0 0 0 0 0 0 0 0 0 7.209e-18 2.39e-14 6.329e-05 0.0002074 0.0002593 0.0001779 7.584e-05 2.083e-05 4.01e-06 
0 0 0 0 0 0 0 0 0 0 0 0 0 6.006e-19 1.226e-05 8.458e-05 0.0001948 0.0002325 0.0001677 7.73e-05 2.464e-05 
0 0 0 0 0 0 0 0 0 0 0 0 0 0 1.665e-06 2.324e-05 9.358e-05 0.0001852 0.0002162 0.0001606 8.148e-05 
0 0 0 0 0 0 0 0 0 0 0 0 0 0 1.63e-07 4.52e-06 3.075e-05 9.746e-05 0.0001784 0.0002066 0.0001616 
0 0 0 0 0 0 0 0 0 0 0 0 0 0 1.163e-08 6.367e-07 7.141e-06 3.536e-05 9.888e-05 0.000174 0.0002043 
0 0 0 0 0 0 0 0 0 0 0 0 0 0 6.042e-10 6.53e-08 1.187e-06 9.008e-06 3.775e-05 9.892e-05 0.0001705 
0 0 0 0 0 0 0 0 0 0 0 0 0 0 2.261e-11 4.836e-09 1.408e-07 1.614e-06 9.984e-06 3.834e-05 9.538e-05 
0 0 0 0 0 0 0 0 0 0 0 0 0 0 5.96e-13 2.533e-10 1.171e-08 2.006e-07 1.812e-06 1.008e-05 3.574e-05 
0 0 0 0 0 0 0 0 0 0 0 0 0 0 1.067e-14 9.044e-12 6.597e-10 1.678e-08 2.198e-07 1.755e-06 8.809e-06 
0 0 0 0 0 0 0 0 0 0 0 0 0 0 1.222e-16 2.075e-13 2.38e-11 8.955e-10 1.694e-08 1.938e-07 1.373e-06 
0 0 0 0 0 0 0 0 0 0 0 0 0 0 8.141e-19 2.779e-15 5.004e-13 2.785e-11 7.633e-10 1.254e-08 1.262e-07 
0 0 0 0 0 0 0 0 0 0 0 0 0 0 0 1.823e-17 5.162e-15 4.286e-13 1.723e-11 4.126e-10 6.024e-09 
0 0 0 0 0 0 0 0 0 0 0 0 0 0 0 3.934e-20 1.772e-17 2.267e-15 1.396e-13 5.106e-12 1.147e-10 
0 0 0 0 0 0 0 0 0 0 0 0 0 0 0 0 0 4.716e-19 8.711e-17 7.474e-15 3.723e-13 
0 0 0 0 0 0 0 0 0 0 0 0 0 0 0 0 0 0 0 3.029e-19 6.727e-17 
0 0 0 0 0 0 0 0 0 0 0 0 0 0 0 0 0 0 0 0 0 
0 0 0 0 0 0 0 0 0 0 0 0 0 0 0 0 0 0 0 0 0 
0 0 0 0 0 0 0 0 0 0 0 0 0 0 0 0 0 0 0 0 0 
</DataArray>
<DataArray Name="E" NumberOfComponents="1" format="ascii" type="Float64">
6.248 5.998 5.498 4.998 4.498 3.999 3.499 2.999 2.499 1.999 1.5 0.9999 0.5001 0.0006768 -0.4987 -0.9984 -1.498 -1.998 -2.498 -2.998 -3.247 
6.248 5.998 5.498 4.998 4.498 3.999 3.499 2.999 2.499 1.999 1.5 0.9999 0.5001 0.0006768 -0.4987 -0.9984 -1.498 -1.998 -2.498 -2.998 -3.247 
6.248 5.998 5.498 4.998 4.498 3.999 3.499 2.999 2.499 1.999 1.5 0.9999 0.5001 0.0006768 -0.4987 -0.9984 -1.498 -1.998 -2.498 -2.998 -3.247 
6.248 5.998 5.498 4.998 4.498 3.999 3.499 2.999 2.499 1.999 1.5 0.9999 0.5001 0.0006768 -0.4987 -0.9984 -1.498 -1.998 -2.498 -2.998 -3.247 
6.248 5.998 5.498 4.998 4.498 3.999 3.499 2.999 2.499 1.999 1.5 0.9999 0.5001 0.0006768 -0.4987 -0.9984 -1.498 -1.998 -2.498 -2.998 -3.247 
6.248 5.998 5.498 4.998 4.498 3.999 3.499 2.999 2.499 1.999 1.5 0.9999 0.5001 0.0006768 -0.4987 -0.9984 -1.498 -1.998 -2.498 -2.998 -3.247 
6.248 5.998 5.498 4.998 4.498 3.999 3.499 2.999 2.499 1.999 1.5 0.9999 0.5001 0.0006768 -0.4987 -0.9984 -1.498 -1.998 -2.498 -2.998 -3.247 
6.248 5.998 5.498 4.998 4.498 3.999 3.499 2.999 2.499 1.999 1.5 0.9999 0.5001 0.0006768 -0.4987 -0.9984 -1.498 -1.998 -2.498 -2.998 -3.247 
6.248 5.998 5.498 4.998 4.498 3.999 3.499 2.999 2.499 1.999 1.5 0.9999 0.5001 0.0006768 -0.4987 -0.9984 -1.498 -1.998 -2.498 -2.998 -3.247 
6.248 5.998 5.498 4.998 4.498 3.999 3.499 2.999 2.499 1.999 1.5 0.9999 0.5001 0.0006768 -0.4987 -0.9984 -1.498 -1.998 -2.498 -2.998 -3.247 
6.248 5.998 5.498 4.998 4.498 3.999 3.499 2.999 2.499 1.999 1.5 0.9999 0.5001 0.0006768 -0.4987 -0.9984 -1.498 -1.998 -2.498 -2.998 -3.247 
6.248 5.998 5.498 4.998 4.498 3.999 3.499 2.999 2.499 1.999 1.5 0.9999 0.5001 0.0006768 -0.4987 -0.9984 -1.498 -1.998 -2.498 -2.998 -3.247 
6.248 5.998 5.498 4.998 4.498 3.999 3.499 2.999 2.499 1.999 1.5 0.9999 0.5001 0.0006768 -0.4987 -0.9984 -1.498 -1.998 -2.498 -2.998 -3.247 
6.248 5.998 5.498 4.998 4.498 3.999 3.499 2.999 2.499 1.999 1.5 0.9999 0.5001 0.0006768 -0.4987 -0.9984 -1.498 -1.998 -2.498 -2.998 -3.247 
6.248 5.998 5.498 4.998 4.498 3.999 3.499 2.999 2.499 1.999 1.5 0.9999 0.5001 0.0006768 -0.4987 -0.9984 -1.498 -1.998 -2.498 -2.998 -3.247 
6.248 5.998 5.498 4.998 4.498 3.999 3.499 2.999 2.499 1.999 1.5 0.9999 0.5001 0.0006768 -0.4987 -0.9984 -1.498 -1.998 -2.498 -2.998 -3.247 
6.248 5.998 5.498 4.998 4.498 3.999 3.499 2.999 2.499 1.999 1.5 0.9999 0.5001 0.0006768 -0.4987 -0.9984 -1.498 -1.998 -2.498 -2.998 -3.247 
6.248 5.998 5.498 4.998 4.498 3.999 3.499 2.999 2.499 1.999 1.5 0.9999 0.5001 0.0006768 -0.4987 -0.9984 -1.498 -1.998 -2.498 -2.998 -3.247 
6.248 5.998 5.498 4.998 4.498 3.999 3.499 2.999 2.499 1.999 1.5 0.9999 0.5001 0.0006768 -0.4987 -0.9984 -1.498 -1.998 -2.498 -2.998 -3.247 
6.248 5.998 5.498 4.998 4.498 3.999 3.499 2.999 2.499 1.999 1.5 0.9999 0.5001 0.0006768 -0.4987 -0.9984 -1.498 -1.998 -2.498 -2.998 -3.247 
6.248 5.998 5.498 4.998 4.498 3.999 3.499 2.999 2.499 1.999 1.5 0.9999 0.5001 0.0006768 -0.4987 -0.9984 -1.498 -1.998 -2.498 -2.998 -3.247 
6.248 5.998 5.498 4.998 4.498 3.999 3.499 2.999 2.499 1.999 1.5 0.9999 0.5001 0.0006768 -0.4987 -0.9984 -1.498 -1.998 -2.498 -2.998 -3.247 
6.248 5.998 5.498 4.998 4.498 3.999 3.499 2.999 2.499 1.999 1.5 0.9999 0.5001 0.0006768 -0.4987 -0.9984 -1.498 -1.998 -2.498 -2.998 -3.247 
6.248 5.998 5.498 4.998 4.498 3.999 3.499 2.999 2.499 1.999 1.5 0.9999 0.5001 0.0006768 -0.4987 -0.9984 -1.498 -1.998 -2.498 -2.998 -3.247 
6.248 5.998 5.498 4.998 4.498 3.999 3.499 2.999 2.499 1.999 1.5 0.9999 0.5001 0.0006768 -0.4987 -0.9984 -1.498 -1.998 -2.498 -2.998 -3.247 
6.248 5.998 5.498 4.998 4.498 3.999 3.499 2.999 2.499 1.999 1.5 0.9999 0.5001 0.0006768 -0.4987 -0.9984 -1.498 -1.998 -2.498 -2.998 -3.247 
6.248 5.998 5.498 4.998 4.498 3.999 3.499 2.999 2.499 1.999 1.5 0.9999 0.5001 0.0006768 -0.4987 -0.9984 -1.498 -1.998 -2.498 -2.998 -3.247 
6.248 5.998 5.498 4.998 4.498 3.999 3.499 2.999 2.499 1.999 1.5 0.9999 0.5001 0.0006768 -0.4987 -0.9984 -1.498 -1.998 -2.498 -2.998 -3.247 
6.248 5.998 5.498 4.998 4.498 3.999 3.499 2.999 2.499 1.999 1.5 0.9999 0.5001 0.0006768 -0.4987 -0.9984 -1.498 -1.998 -2.498 -2.998 -3.247 
6.248 5.998 5.498 4.998 4.498 3.999 3.499 2.999 2.499 1.999 1.5 0.9999 0.5001 0.0006768 -0.4987 -0.9984 -1.498 -1.998 -2.498 -2.998 -3.247 
6.248 5.998 5.498 4.998 4.498 3.999 3.499 2.999 2.499 1.999 1.5 0.9999 0.5001 0.0006768 -0.4987 -0.9984 -1.498 -1.998 -2.498 -2.998 -3.247 
6.248 5.998 5.498 4.998 4.498 3.999 3.499 2.999 2.499 1.999 1.5 0.9999 0.5001 0.0006768 -0.4987 -0.9984 -1.498 -1.998 -2.498 -2.998 -3.247 
6.248 5.998 5.498 4.998 4.498 3.999 3.499 2.999 2.499 1.999 1.5 0.9999 0.5001 0.0006768 -0.4987 -0.9984 -1.498 -1.998 -2.498 -2.998 -3.247 
6.248 5.998 5.498 4.998 4.498 3.999 3.499 2.999 2.499 1.999 1.5 0.9999 0.5001 0.0006768 -0.4987 -0.9984 -1.498 -1.998 -2.498 -2.998 -3.247 
6.248 5.998 5.498 4.998 4.498 3.999 3.499 2.999 2.499 1.999 1.5 0.9999 0.5001 0.0006768 -0.4987 -0.9984 -1.498 -1.998 -2.498 -2.998 -3.247 
6.248 5.998 5.498 4.998 4.498 3.999 3.499 2.999 2.499 1.999 1.5 0.9999 0.5001 0.0006768 -0.4987 -0.9984 -1.498 -1.998 -2.498 -2.998 -3.247 
6.248 5.998 5.498 4.998 4.498 3.999 3.499 2.999 2.499 1.999 1.5 0.9999 0.5001 0.0006768 -0.4987 -0.9984 -1.498 -1.998 -2.498 -2.998 -3.247 
6.248 5.998 5.498 4.998 4.498 3.999 3.499 2.999 2.499 1.999 1.5 0.9999 0.5001 0.0006768 -0.4987 -0.9984 -1.498 -1.998 -2.498 -2.998 -3.247 
6.248 5.998 5.498 4.998 4.498 3.999 3.499 2.999 2.499 1.999 1.5 0.9999 0.5001 0.0006768 -0.4987 -0.9984 -1.498 -1.998 -2.498 -2.998 -3.247 
6.248 5.998 5.498 4.998 4.498 3.999 3.499 2.999 2.499 1.999 1.5 0.9999 0.5001 0.0006768 -0.4987 -0.9984 -1.498 -1.998 -2.498 -2.998 -3.247 
6.248 5.998 5.498 4.998 4.498 3.999 3.499 2.999 2.499 1.999 1.5 0.9999 0.5001 0.0006768 -0.4987 -0.9984 -1.498 -1.998 -2.498 -2.998 -3.247 
</DataArray>
<DataArray Name="ne" NumberOfComponents="1" format="ascii" type="Float64">
0.0003775 0.0003789 0.0003813 0.0003836 0.0003864 0.0003896 0.0003941 0.0003991 0.0004048 0.0004112 0.0004183 0.0004206 0.0003856 0.002024 0.0006196 0.0004474 0.0004447 0.0004361 0.000428 0.0004207 0.0004181 
0.0003775 0.0003789 0.0003813 0.0003836 0.0003864 0.0003896 0.0003941 0.0003991 0.0004048 0.0004112 0.0004183 0.0004206 0.0003856 0.002024 0.0006196 0.0004474 0.0004447 0.0004361 0.000428 0.0004207 0.0004181 
0.0003775 0.0003789 0.0003813 0.0003836 0.0003864 0.0003896 0.0003941 0.0003991 0.0004048 0.0004112 0.0004183 0.0004206 0.0003856 0.002024 0.0006196 0.0004474 0.0004447 0.0004361 0.000428 0.0004207 0.0004181 
0.0003775 0.0003789 0.0003813 0.0003836 0.0003864 0.0003896 0.0003941 0.0003991 0.0004048 0.0004112 0.0004183 0.0004206 0.0003856 0.002024 0.0006196 0.0004474 0.0004447 0.0004361 0.000428 0.0004207 0.0004181 
0.0003775 0.0003789 0.0003813 0.0003836 0.0003864 0.0003896 0.0003941 0.0003991 0.0004048 0.0004112 0.0004183 0.0004206 0.0003856 0.002024 0.0006196 0.0004474 0.0004447 0.0004361 0.000428 0.0004207 0.0004181 
0.0003775 0.0003789 0.0003813 0.0003836 0.0003864 0.0003896 0.0003941 0.0003991 0.0004048 0.0004112 0.0004183 0.0004206 0.0003856 0.002024 0.0006196 0.0004474 0.0004447 0.0004361 0.000428 0.0004207 0.0004181 
0.0003775 0.0003789 0.0003813 0.0003836 0.0003864 0.0003896 0.0003941 0.0003991 0.0004048 0.0004112 0.0004183 0.0004206 0.0003856 0.002024 0.0006196 0.0004474 0.0004447 0.0004361 0.000428 0.0004207 0.0004181 
0.0003775 0.0003789 0.0003813 0.0003836 0.0003864 0.0003896 0.0003941 0.0003991 0.0004048 0.0004112 0.0004183 0.0004206 0.0003856 0.002024 0.0006196 0.0004474 0.0004447 0.0004361 0.000428 0.0004207 0.0004181 
0.0003775 0.0003789 0.0003813 0.0003836 0.0003864 0.0003896 0.0003941 0.0003991 0.0004048 0.0004112 0.0004183 0.0004206 0.0003856 0.002024 0.0006196 0.0004474 0.0004447 0.0004361 0.000428 0.0004207 0.0004181 
0.0003775 0.0003789 0.0003813 0.0003836 0.0003864 0.0003896 0.0003941 0.0003991 0.0004048 0.0004112 0.0004183 0.0004206 0.0003856 0.002024 0.0006196 0.0004474 0.0004447 0.0004361 0.000428 0.0004207 0.0004181 
0.0003775 0.0003789 0.0003813 0.0003836 0.0003864 0.0003896 0.0003941 0.0003991 0.0004048 0.0004112 0.0004183 0.0004206 0.0003856 0.002024 0.0006196 0.0004474 0.0004447 0.0004361 0.000428 0.0004207 0.0004181 
0.0003775 0.0003789 0.0003813 0.0003836 0.0003864 0.0003896 0.0003941 0.0003991 0.0004048 0.0004112 0.0004183 0.0004206 0.0003856 0.002024 0.0006196 0.0004474 0.0004447 0.0004361 0.000428 0.0004207 0.0004181 
0.0003775 0.0003789 0.0003813 0.0003836 0.0003864 0.0003896 0.0003941 0.0003991 0.0004048 0.0004112 0.0004183 0.0004206 0.0003856 0.002024 0.0006196 0.0004474 0.0004447 0.0004361 0.000428 0.0004207 0.0004181 
0.0003775 0.0003789 0.0003813 0.0003836 0.0003864 0.0003896 0.0003941 0.0003991 0.0004048 0.0004112 0.0004183 0.0004206 0.0003856 0.002024 0.0006196 0.0004474 0.0004447 0.0004361 0.000428 0.0004207 0.0004181 
0.0003775 0.0003789 0.0003813 0.0003836 0.0003864 0.0003896 0.0003941 0.0003991 0.0004048 0.0004112 0.0004183 0.0004206 0.0003856 0.002024 0.0006196 0.0004474 0.0004447 0.0004361 0.000428 0.0004207 0.0004181 
0.0003775 0.0003789 0.0003813 0.0003836 0.0003864 0.0003896 0.0003941 0.0003991 0.0004048 0.0004112 0.0004183 0.0004206 0.0003856 0.002024 0.0006196 0.0004474 0.0004447 0.0004361 0.000428 0.0004207 0.0004181 
0.0003775 0.0003789 0.0003813 0.0003836 0.0003864 0.0003896 0.0003941 0.0003991 0.0004048 0.0004112 0.0004183 0.0004206 0.0003856 0.002024 0.0006196 0.0004474 0.0004447 0.0004361 0.000428 0.0004207 0.0004181 
0.0003775 0.0003789 0.0003813 0.0003836 0.0003864 0.0003896 0.0003941 0.0003991 0.0004048 0.0004112 0.0004183 0.0004206 0.0003856 0.002024 0.0006196 0.0004474 0.0004447 0.0004361 0.000428 0.0004207 0.0004181 
0.0003775 0.0003789 0.0003813 0.0003836 0.0003864 0.0003896 0.0003941 0.0003991 0.0004048 0.0004112 0.0004183 0.0004206 0.0003856 0.002024 0.0006196 0.0004474 0.0004447 0.0004361 0.000428 0.0004207 0.0004181 
0.0003775 0.0003789 0.0003813 0.0003836 0.0003864 0.0003896 0.0003941 0.0003991 0.0004048 0.0004112 0.0004183 0.0004206 0.0003856 0.002024 0.0006196 0.0004474 0.0004447 0.0004361 0.000428 0.0004207 0.0004181 
0.0003775 0.0003789 0.0003813 0.0003836 0.0003864 0.0003896 0.0003941 0.0003991 0.0004048 0.0004112 0.0004183 0.0004206 0.0003856 0.002024 0.0006196 0.0004474 0.0004447 0.0004361 0.000428 0.0004207 0.0004181 
0.0003775 0.0003789 0.0003813 0.0003836 0.0003864 0.0003896 0.0003941 0.0003991 0.0004048 0.0004112 0.0004183 0.0004206 0.0003856 0.002024 0.0006196 0.0004474 0.0004447 0.0004361 0.000428 0.0004207 0.0004181 
0.0003775 0.0003789 0.0003813 0.0003836 0.0003864 0.0003896 0.0003941 0.0003991 0.0004048 0.0004112 0.0004183 0.0004206 0.0003856 0.002024 0.0006196 0.0004474 0.0004447 0.0004361 0.000428 0.0004207 0.0004181 
0.0003775 0.0003789 0.0003813 0.0003836 0.0003864 0.0003896 0.0003941 0.0003991 0.0004048 0.0004112 0.0004183 0.0004206 0.0003856 0.002024 0.0006196 0.0004474 0.0004447 0.0004361 0.000428 0.0004207 0.0004181 
0.0003775 0.0003789 0.0003813 0.0003836 0.0003864 0.0003896 0.0003941 0.0003991 0.0004048 0.0004112 0.0004183 0.0004206 0.0003856 0.002024 0.0006196 0.0004474 0.0004447 0.0004361 0.000428 0.0004207 0.0004181 
0.0003775 0.0003789 0.0003813 0.0003836 0.0003864 0.0003896 0.0003941 0.0003991 0.0004048 0.0004112 0.0004183 0.0004206 0.0003856 0.002024 0.0006196 0.0004474 0.0004447 0.0004361 0.000428 0.0004207 0.0004181 
0.0003775 0.0003789 0.0003813 0.0003836 0.0003864 0.0003896 0.0003941 0.0003991 0.0004048 0.0004112 0.0004183 0.0004206 0.0003856 0.002024 0.0006196 0.0004474 0.0004447 0.0004361 0.000428 0.0004207 0.0004181 
0.0003775 0.0003789 0.0003813 0.0003836 0.0003864 0.0003896 0.0003941 0.0003991 0.0004048 0.0004112 0.0004183 0.0004206 0.0003856 0.002024 0.0006196 0.0004474 0.0004447 0.0004361 0.000428 0.0004207 0.0004181 
0.0003775 0.0003789 0.0003813 0.0003836 0.0003864 0.0003896 0.0003941 0.0003991 0.0004048 0.0004112 0.0004183 0.0004206 0.0003856 0.002024 0.0006196 0.0004474 0.0004447 0.0004361 0.000428 0.0004207 0.0004181 
0.0003775 0.0003789 0.0003813 0.0003836 0.0003864 0.0003896 0.0003941 0.0003991 0.0004048 0.0004112 0.0004183 0.0004206 0.0003856 0.002024 0.0006196 0.0004474 0.0004447 0.0004361 0.000428 0.0004207 0.0004181 
0.0003775 0.0003789 0.0003813 0.0003836 0.0003864 0.0003896 0.0003941 0.0003991 0.0004048 0.0004112 0.0004183 0.0004206 0.0003856 0.002024 0.0006196 0.0004474 0.0004447 0.0004361 0.000428 0.0004207 0.0004181 
0.0003775 0.0003789 0.0003813 0.0003836 0.0003864 0.0003896 0.0003941 0.0003991 0.0004048 0.0004112 0.0004183 0.0004206 0.0003856 0.002024 0.0006196 0.0004474 0.0004447 0.0004361 0.000428 0.0004207 0.0004181 
0.0003775 0.0003789 0.0003813 0.0003836 0.0003864 0.0003896 0.0003941 0.0003991 0.0004048 0.0004112 0.0004183 0.0004206 0.0003856 0.002024 0.0006196 0.0004474 0.0004447 0.0004361 0.000428 0.0004207 0.0004181 
0.0003775 0.0003789 0.0003813 0.0003836 0.0003864 0.0003896 0.0003941 0.0003991 0.0004048 0.0004112 0.0004183 0.0004206 0.0003856 0.002024 0.0006196 0.0004474 0.0004447 0.0004361 0.000428 0.0004207 0.0004181 
0.0003775 0.0003789 0.0003813 0.0003836 0.0003864 0.0003896 0.0003941 0.0003991 0.0004048 0.0004112 0.0004183 0.0004206 0.0003856 0.002024 0.0006196 0.0004474 0.0004447 0.0004361 0.000428 0.0004207 0.0004181 
0.0003775 0.0003789 0.0003813 0.0003836 0.0003864 0.0003896 0.0003941 0.0003991 0.0004048 0.0004112 0.0004183 0.0004206 0.0003856 0.002024 0.0006196 0.0004474 0.0004447 0.0004361 0.000428 0.0004207 0.0004181 
0.0003775 0.0003789 0.0003813 0.0003836 0.0003864 0.0003896 0.0003941 0.0003991 0.0004048 0.0004112 0.0004183 0.0004206 0.0003856 0.002024 0.0006196 0.0004474 0.0004447 0.0004361 0.000428 0.0004207 0.0004181 
0.0003775 0.0003789 0.0003813 0.0003836 0.0003864 0.0003896 0.0003941 0.0003991 0.0004048 0.0004112 0.0004183 0.0004206 0.0003856 0.002024 0.0006196 0.0004474 0.0004447 0.0004361 0.000428 0.0004207 0.0004181 
0.0003775 0.0003789 0.0003813 0.0003836 0.0003864 0.0003896 0.0003941 0.0003991 0.0004048 0.0004112 0.0004183 0.0004206 0.0003856 0.002024 0.0006196 0.0004474 0.0004447 0.0004361 0.000428 0.0004207 0.0004181 
0.0003775 0.0003789 0.0003813 0.0003836 0.0003864 0.0003896 0.0003941 0.0003991 0.0004048 0.0004112 0.0004183 0.0004206 0.0003856 0.002024 0.0006196 0.0004474 0.0004447 0.0004361 0.000428 0.0004207 0.0004181 
0.0003775 0.0003789 0.0003813 0.0003836 0.0003864 0.0003896 0.0003941 0.0003991 0.0004048 0.0004112 0.0004183 0.0004206 0.0003856 0.002024 0.0006196 0.0004474 0.0004447 0.0004361 0.000428 0.0004207 0.0004181 
</DataArray>
</PointData>
</Piece>
</ImageData>
</VTKFile>
