<VTKFile type="ImageData">
<ImageData Origin="0 -10 0" Spacing="0.5 0.5 1" WholeExtent="0 20 0 40 0 0">
<Piece Extent="0 20 0 40 0 0">
<PointData>
<DataArray Name="f" NumberOfComponents="1" format="ascii" type="Float64">
2.547e-09 4.642e-11 3.205e-15 8.84e-18 0 0 0 0 0 0 0 0 0 0 0 0 0 0 0 0 0 
5.457e-07 1.387e-08 1.207e-11 1.242e-13 1.558e-19 0 0 0 0 0 0 0 0 0 0 0 0 0 0 0 0 
1.256e-05 6.194e-07 6.269e-09 1.532e-10 1.47e-14 8.143e-17 1.456e-19 0 0 0 0 0 0 0 0 0 0 0 0 0 0 
0.0001686 1.985e-05 1.218e-06 4.105e-08 5.063e-11 1.064e-12 1.326e-14 8.144e-17 1.615e-19 0 0 0 0 0 0 0 0 0 0 0 0 
0.0009364 0.0001956 2.362e-05 1.559e-06 2.375e-08 1.192e-09 4.226e-11 9.978e-13 1.422e-14 1.018e-16 2.407e-19 0 0 0 0 0 0 0 0 0 0 
0.002897 0.001047 0.0002395 3.384e-05 2.523e-06 1.555e-07 1.026e-08 4.839e-10 1.541e-11 3.02e-13 3.071e-15 1.088e-17 0 0 0 0 0 0 0 0 0 
0.005247 0.002995 0.001126 0.0002742 4.042e-05 4.476e-06 4.475e-07 3.203e-08 1.553e-09 4.651e-11 7.25e-13 3.998e-15 2.083e-18 0 0 0 0 0 0 0 0 
0.006067 0.005268 0.003086 0.001203 0.000302 5.486e-05 7.967e-06 8.265e-07 5.817e-08 2.542e-09 5.854e-11 4.942e-13 4.599e-16 0 0 0 0 0 0 0 0 
0.004624 0.006008 0.005338 0.003206 0.001278 0.000359 7.476e-05 1.108e-05 1.115e-06 7.012e-08 2.363e-09 3.048e-11 5.089e-14 0 0 0 0 0 0 0 0 
0.002333 0.004515 0.006014 0.005451 0.003329 0.001401 0.0004183 8.832e-05 1.267e-05 1.144e-06 5.637e-08 1.113e-09 3.349e-12 2.898e-20 0 0 0 0 0 0 0 
0.0007655 0.002222 0.004436 0.006028 0.005552 0.003463 0.001492 0.0004509 9.247e-05 1.202e-05 8.702e-07 2.647e-08 1.439e-10 9.923e-18 0 0 0 0 0 0 0 
0.0001574 0.0006986 0.002115 0.004335 0.006024 0.005589 0.003521 0.001537 0.0004543 8.571e-05 9.18e-06 4.334e-07 4.27e-09 2.329e-15 0 0 0 0 0 0 0 
1.908e-05 0.000134 0.0006311 0.001993 0.004239 0.005949 0.005583 0.003569 0.001538 0.000426 6.828e-05 5.058e-06 9.068e-08 3.847e-13 2.098e-19 0 0 0 0 0 0 
1.235e-06 1.459e-05 0.0001117 0.0005647 0.001893 0.004144 0.005938 0.005663 0.003617 0.001492 0.0003635 4.287e-05 1.408e-06 4.527e-11 4.708e-16 8.787e-19 0 0 0 0 0 
3.638e-08 8.059e-07 1.073e-05 9.285e-05 0.0005134 0.001841 0.00416 0.006055 0.005848 0.003667 0.001385 0.0002652 1.612e-05 3.797e-09 4.577e-13 1.502e-15 2.16e-18 0 0 0 0 
3.638e-10 1.889e-08 4.833e-07 8.046e-06 7.841e-05 0.000498 0.001847 0.004221 0.006322 0.006177 0.003713 0.001186 0.0001362 2.243e-07 2.076e-10 1.131e-12 2.588e-15 1.813e-18 0 0 0 
6.728e-13 1.358e-10 7.73e-09 3.139e-07 5.922e-06 7.602e-05 0.0004869 0.001805 0.004323 0.006796 0.006729 0.003725 0.0008377 9.036e-06 4.495e-08 3.98e-10 1.439e-12 1.581e-15 3.115e-19 0 0 
1.62e-16 9.689e-14 2.452e-11 4.105e-09 1.728e-07 5.79e-06 6.779e-05 0.0004244 0.001689 0.004453 0.00761 0.007699 0.003604 0.0002314 4.548e-06 6.663e-08 3.886e-10 6.825e-13 2.156e-16 0 0 
0 0 1.196e-14 6.231e-12 1.176e-09 1.735e-07 3.915e-06 4.363e-05 0.000306 0.00144 0.00455 0.009099 0.009759 0.003228 0.0002003 5.233e-06 5.197e-08 1.52e-10 7.971e-14 2.553e-18 0 
0 0 0 0 1.784e-12 8.452e-10 4.092e-08 9.539e-07 1.392e-05 0.0001374 0.0009328 0.004254 0.01206 0.01706 0.003391 0.0001861 3.455e-06 1.793e-08 1.642e-11 9.335e-16 0 
0 0 0 0 0 0 0 3.247e-17 2.172e-13 1.649e-10 3.381e-08 2.868e-06 0.0001296 0.003721 0.01763 0.002905 0.000116 1.151e-06 1.94e-09 2.106e-13 6.655e-17 
0 0 0 0 0 0 0 1.185e-19 1.119e-15 1.166e-12 3.231e-10 3.649e-08 2.151e-06 7.789e-05 0.01186 0.00922 0.003023 0.0006036 7.987e-05 6.956e-06 4.463e-07 
0 0 0 0 0 0 0 0 3.441e-18 4.832e-15 1.781e-12 2.651e-10 2.038e-08 9.463e-07 0.003852 0.00856 0.006888 0.00304 0.0008396 0.0001498 1.923e-05 
0 0 0 0 0 0 0 0 0 1.089e-17 5.256e-15 1.018e-12 1.012e-10 6.035e-09 0.0007626 0.004183 0.00694 0.005843 0.002953 0.000948 0.0002136 
0 0 0 0 0 0 0 0 0 1.222e-20 7.615e-18 1.896e-15 2.412e-13 1.834e-11 0.0001009 0.001295 0.004074 0.006068 0.00525 0.002853 0.001067 
0 0 0 0 0 0 0 0 0 0 0 1.546e-18 2.495e-16 2.399e-14 9.33e-06 0.0002752 0.001562 0.003919 0.005548 0.00489 0.002915 
0 0 0 0 0 0 0 0 0 0 0 0 9.952e-20 1.203e-17 6.166e-07 4.174e-05 0.0004134 0.001688 0.003782 0.00523 0.004811 
0 0 0 0 0 0 0 0 0 0 0 0 0 0 2.934e-08 4.584e-06 7.751e-05 0.0005025 0.001736 0.003671 0.005072 
0 0 0 0 0 0 0 0 0 0 0 0 0 0 1.002e-09 3.643e-07 1.037e-05 0.0001047 0.0005477 0.001734 0.003523 
0 0 0 0 0 0 0 0 0 0 0 0 0 0 2.425e-11 2.066e-08 9.81e-07 1.525e-05 0.0001189 0.0005552 0.00163 
0 0 0 0 0 0 0 0 0 0 0 0 0 0 4.06e-13 8.152e-10 6.429e-08 1.523e-06 1.753e-05 0.0001193 0.0005005 
0 0 0 0 0 0 0 0 0 0 0 0 0 0 4.529e-15 2.146e-11 2.808e-09 1.008e-07 1.701e-06 1.675e-05 9.962e-05 
0 0 0 0 0 0 0 0 0 0 0 0 0 0 3.176e-17 3.539e-13 7.695e-11 4.174e-09 1.03e-07 1.462e-06 1.231e-05 
0 0 0 0 0 0 0 0 0 0 0 0 0 0 1.273e-19 3.302e-15 1.198e-12 9.824e-11 3.549e-09 7.286e-08 8.735e-07 
0 0 0 0 0 0 0 0 0 0 0 0 0 0 0 1.458e-17 8.866e-15 1.107e-12 5.925e-11 1.783e-09 3.108e-08 
0 0 0 0 0 0 0 0 0 0 0 0 0 0 0 2.038e-20 2.095e-17 4.083e-15 3.364e-13 1.551e-11 4.175e-10 
0 0 0 0 0 0 0 0 0 0 0 0 0 0 0 0 0 3.736e-19 1.084e-16 1.269e-14 8.085e-13 
0 0 0 0 0 0 0 0 0 0 0 0 0 0 0 0 0 0 0 1.58e-19 5.802e-17 
0 0 0 0 0 0 0 0 0 0 0 0 0 0 0 0 0 0 0 0 0 
0 0 0 0 0 0 0 0 0 0 0 0 0 0 0 0 0 0 0 0 0 
0 0 0 0 0 0 0 0 0 0 0 0 0 0 0 0 0 0 0 0 0 
</DataArray>
<DataArray Name="E" NumberOfComponents="1" format="ascii" type="Float64">
6.189 5.942 5.448 4.954 4.46 3.966 3.473 2.979 2.485 1.992 1.498 1.005 0.5123 0.019 -0.4728 -0.9643 -1.458 -1.952 -2.446 -2.941 -3.188 
6.189 5.942 5.448 4.954 4.46 3.966 3.473 2.979 2.485 1.992 1.498 1.005 0.5123 0.019 -0.4728 -0.9643 -1.458 -1.952 -2.446 -2.941 -3.188 
6.189 5.942 5.448 4.954 4.46 3.966 3.473 2.979 2.485 1.992 1.498 1.005 0.5123 0.019 -0.4728 -0.9643 -1.458 -1.952 -2.446 -2.941 -3.188 
6.189 5.942 5.448 4.954 4.46 3.966 3.473 2.979 2.485 1.992 1.498 1.005 0.5123 0.019 -0.4728 -0.9643 -1.458 -1.952 -2.446 -2.941 -3.188 
6.189 5.942 5.448 4.954 4.46 3.966 3.473 2.979 2.485 1.992 1.498 1.005 0.5123 0.019 -0.4728 -0.9643 -1.458 -1.952 -2.446 -2.941 -3.188 
6.189 5.942 5.448 4.954 4.46 3.966 3.473 2.979 2.485 1.992 1.498 1.005 0.5123 0.019 -0.4728 -0.9643 -1.458 -1.952 -2.446 -2.941 -3.188 
6.189 5.942 5.448 4.954 4.46 3.966 3.473 2.979 2.485 1.992 1.498 1.005 0.5123 0.019 -0.4728 -0.9643 -1.458 -1.952 -2.446 -2.941 -3.188 
6.189 5.942 5.448 4.954 4.46 3.966 3.473 2.979 2.485 1.992 1.498 1.005 0.5123 0.019 -0.4728 -0.9643 -1.458 -1.952 -2.446 -2.941 -3.188 
6.189 5.942 5.448 4.954 4.46 3.966 3.473 2.979 2.485 1.992 1.498 1.005 0.5123 0.019 -0.4728 -0.9643 -1.458 -1.952 -2.446 -2.941 -3.188 
6.189 5.942 5.448 4.954 4.46 3.966 3.473 2.979 2.485 1.992 1.498 1.005 0.5123 0.019 -0.4728 -0.9643 -1.458 -1.952 -2.446 -2.941 -3.188 
6.189 5.942 5.448 4.954 4.46 3.966 3.473 2.979 2.485 1.992 1.498 1.005 0.5123 0.019 -0.4728 -0.9643 -1.458 -1.952 -2.446 -2.941 -3.188 
6.189 5.942 5.448 4.954 4.46 3.966 3.473 2.979 2.485 1.992 1.498 1.005 0.5123 0.019 -0.4728 -0.9643 -1.458 -1.952 -2.446 -2.941 -3.188 
6.189 5.942 5.448 4.954 4.46 3.966 3.473 2.979 2.485 1.992 1.498 1.005 0.5123 0.019 -0.4728 -0.9643 -1.458 -1.952 -2.446 -2.941 -3.188 
6.189 5.942 5.448 4.954 4.46 3.966 3.473 2.979 2.485 1.992 1.498 1.005 0.5123 0.019 -0.4728 -0.9643 -1.458 -1.952 -2.446 -2.941 -3.188 
6.189 5.942 5.448 4.954 4.46 3.966 3.473 2.979 2.485 1.992 1.498 1.005 0.5123 0.019 -0.4728 -0.9643 -1.458 -1.952 -2.446 -2.941 -3.188 
6.189 5.942 5.448 4.954 4.46 3.966 3.473 2.979 2.485 1.992 1.498 1.005 0.5123 0.019 -0.4728 -0.9643 -1.458 -1.952 -2.446 -2.941 -3.188 
6.189 5.942 5.448 4.954 4.46 3.966 3.473 2.979 2.485 1.992 1.498 1.005 0.5123 0.019 -0.4728 -0.9643 -1.458 -1.952 -2.446 -2.941 -3.188 
6.189 5.942 5.448 4.954 4.46 3.966 3.473 2.979 2.485 1.992 1.498 1.005 0.5123 0.019 -0.4728 -0.9643 -1.458 -1.952 -2.446 -2.941 -3.188 
6.189 5.942 5.448 4.954 4.46 3.966 3.473 2.979 2.485 1.992 1.498 1.005 0.5123 0.019 -0.4728 -0.9643 -1.458 -1.952 -2.446 -2.941 -3.188 
6.189 5.942 5.448 4.954 4.46 3.966 3.473 2.979 2.485 1.992 1.498 1.005 0.5123 0.019 -0.4728 -0.9643 -1.458 -1.952 -2.446 -2.941 -3.188 
6.189 5.942 5.448 4.954 4.46 3.966 3.473 2.979 2.485 1.992 1.498 1.005 0.5123 0.019 -0.4728 -0.9643 -1.458 -1.952 -2.446 -2.941 -3.188 
6.189 5.942 5.448 4.954 4.46 3.966 3.473 2.979 2.485 1.992 1.498 1.005 0.5123 0.019 -0.4728 -0.9643 -1.458 -1.952 -2.446 -2.941 -3.188 
6.189 5.942 5.448 4.954 4.46 3.966 3.473 2.979 2.485 1.992 1.498 1.005 0.5123 0.019 -0.4728 -0.9643 -1.458 -1.952 -2.446 -2.941 -3.188 
6.189 5.942 5.448 4.954 4.46 3.966 3.473 2.979 2.485 1.992 1.498 1.005 0.5123 0.019 -0.4728 -0.9643 -1.458 -1.952 -2.446 -2.941 -3.188 
6.189 5.942 5.448 4.954 4.46 3.966 3.473 2.979 2.485 1.992 1.498 1.005 0.5123 0.019 -0.4728 -0.9643 -1.458 -1.952 -2.446 -2.941 -3.188 
6.189 5.942 5.448 4.954 4.46 3.966 3.473 2.979 2.485 1.992 1.498 1.005 0.5123 0.019 -0.4728 -0.9643 -1.458 -1.952 -2.446 -2.941 -3.188 
6.189 5.942 5.448 4.954 4.46 3.966 3.473 2.979 2.485 1.992 1.498 1.005 0.5123 0.019 -0.4728 -0.9643 -1.458 -1.952 -2.446 -2.941 -3.188 
6.189 5.942 5.448 4.954 4.46 3.966 3.473 2.979 2.485 1.992 1.498 1.005 0.5123 0.019 -0.4728 -0.9643 -1.458 -1.952 -2.446 -2.941 -3.188 
6.189 5.942 5.448 4.954 4.46 3.966 3.473 2.979 2.485 1.992 1.498 1.005 0.5123 0.019 -0.4728 -0.9643 -1.458 -1.952 -2.446 -2.941 -3.188 
6.189 5.942 5.448 4.954 4.46 3.966 3.473 2.979 2.485 1.992 1.498 1.005 0.5123 0.019 -0.4728 -0.9643 -1.458 -1.952 -2.446 -2.941 -3.188 
6.189 5.942 5.448 4.954 4.46 3.966 3.473 2.979 2.485 1.992 1.498 1.005 0.5123 0.019 -0.4728 -0.9643 -1.458 -1.952 -2.446 -2.941 -3.188 
6.189 5.942 5.448 4.954 4.46 3.966 3.473 2.979 2.485 1.992 1.498 1.005 0.5123 0.019 -0.4728 -0.9643 -1.458 -1.952 -2.446 -2.941 -3.188 
6.189 5.942 5.448 4.954 4.46 3.966 3.473 2.979 2.485 1.992 1.498 1.005 0.5123 0.019 -0.4728 -0.9643 -1.458 -1.952 -2.446 -2.941 -3.188 
6.189 5.942 5.448 4.954 4.46 3.966 3.473 2.979 2.485 1.992 1.498 1.005 0.5123 0.019 -0.4728 -0.9643 -1.458 -1.952 -2.446 -2.941 -3.188 
6.189 5.942 5.448 4.954 4.46 3.966 3.473 2.979 2.485 1.992 1.498 1.005 0.5123 0.019 -0.4728 -0.9643 -1.458 -1.952 -2.446 -2.941 -3.188 
6.189 5.942 5.448 4.954 4.46 3.966 3.473 2.979 2.485 1.992 1.498 1.005 0.5123 0.019 -0.4728 -0.9643 -1.458 -1.952 -2.446 -2.941 -3.188 
6.189 5.942 5.448 4.954 4.46 3.966 3.473 2.979 2.485 1.992 1.498 1.005 0.5123 0.019 -0.4728 -0.9643 -1.458 -1.952 -2.446 -2.941 -3.188 
6.189 5.942 5.448 4.954 4.46 3.966 3.473 2.979 2.485 1.992 1.498 1.005 0.5123 0.019 -0.4728 -0.9643 -1.458 -1.952 -2.446 -2.941 -3.188 
6.189 5.942 5.448 4.954 4.46 3.966 3.473 2.979 2.485 1.992 1.498 1.005 0.5123 0.019 -0.4728 -0.9643 -1.458 -1.952 -2.446 -2.941 -3.188 
6.189 5.942 5.448 4.954 4.46 3.966 3.473 2.979 2.485 1.992 1.498 1.005 0.5123 0.019 -0.4728 -0.9643 -1.458 -1.952 -2.446 -2.941 -3.188 
6.189 5.942 5.448 4.954 4.46 3.966 3.473 2.979 2.485 1.992 1.498 1.005 0.5123 0.019 -0.4728 -0.9643 -1.458 -1.952 -2.446 -2.941 -3.188 
</DataArray>
<DataArray Name="ne" NumberOfComponents="1" format="ascii" type="Float64">
0.01234 0.01232 0.01233 0.01235 0.01239 0.01245 0.01255 0.01269 0.01287 0.0131 0.01345 0.01392 0.01407 0.01286 0.0198 0.01417 0.01223 0.01153 0.01104 0.01067 0.01049 
0.01234 0.01232 0.01233 0.01235 0.01239 0.01245 0.01255 0.01269 0.01287 0.0131 0.01345 0.01392 0.01407 0.01286 0.0198 0.01417 0.01223 0.01153 0.01104 0.01067 0.01049 
0.01234 0.01232 0.01233 0.01235 0.01239 0.01245 0.01255 0.01269 0.01287 0.0131 0.01345 0.01392 0.01407 0.01286 0.0198 0.01417 0.01223 0.01153 0.01104 0.01067 0.01049 
0.01234 0.01232 0.01233 0.01235 0.01239 0.01245 0.01255 0.01269 0.01287 0.0131 0.01345 0.01392 0.01407 0.01286 0.0198 0.01417 0.01223 0.01153 0.01104 0.01067 0.01049 
0.01234 0.01232 0.01233 0.01235 0.01239 0.01245 0.01255 0.01269 0.01287 0.0131 0.01345 0.01392 0.01407 0.01286 0.0198 0.01417 0.01223 0.01153 0.01104 0.01067 0.01049 
0.01234 0.01232 0.01233 0.01235 0.01239 0.01245 0.01255 0.01269 0.01287 0.0131 0.01345 0.01392 0.01407 0.01286 0.0198 0.01417 0.01223 0.01153 0.01104 0.01067 0.01049 
0.01234 0.01232 0.01233 0.01235 0.01239 0.01245 0.01255 0.01269 0.01287 0.0131 0.01345 0.01392 0.01407 0.01286 0.0198 0.01417 0.01223 0.01153 0.01104 0.01067 0.01049 
0.01234 0.01232 0.01233 0.01235 0.01239 0.01245 0.01255 0.01269 0.01287 0.0131 0.01345 0.01392 0.01407 0.01286 0.0198 0.01417 0.01223 0.01153 0.01104 0.01067 0.01049 
0.01234 0.01232 0.01233 0.01235 0.01239 0.01245 0.01255 0.01269 0.01287 0.0131 0.01345 0.01392 0.01407 0.01286 0.0198 0.01417 0.01223 0.01153 0.01104 0.01067 0.01049 
0.01234 0.01232 0.01233 0.01235 0.01239 0.01245 0.01255 0.01269 0.01287 0.0131 0.01345 0.01392 0.01407 0.01286 0.0198 0.01417 0.01223 0.01153 0.01104 0.01067 0.01049 
0.01234 0.01232 0.01233 0.01235 0.01239 0.01245 0.01255 0.01269 0.01287 0.0131 0.01345 0.01392 0.01407 0.01286 0.0198 0.01417 0.01223 0.01153 0.01104 0.01067 0.01049 
0.01234 0.01232 0.01233 0.01235 0.01239 0.01245 0.01255 0.01269 0.01287 0.0131 0.01345 0.01392 0.01407 0.01286 0.0198 0.01417 0.01223 0.01153 0.01104 0.01067 0.01049 
0.01234 0.01232 0.01233 0.01235 0.01239 0.01245 0.01255 0.01269 0.01287 0.0131 0.01345 0.01392 0.01407 0.01286 0.0198 0.01417 0.01223 0.01153 0.01104 0.01067 0.01049 
0.01234 0.01232 0.01233 0.01235 0.01239 0.01245 0.01255 0.01269 0.01287 0.0131 0.01345 0.01392 0.01407 0.01286 0.0198 0.01417 0.01223 0.01153 0.01104 0.01067 0.01049 
0.01234 0.01232 0.01233 0.01235 0.01239 0.01245 0.01255 0.01269 0.01287 0.0131 0.01345 0.01392 0.01407 0.01286 0.0198 0.01417 0.01223 0.01153 0.01104 0.01067 0.01049 
0.01234 0.01232 0.01233 0.01235 0.01239 0.01245 0.01255 0.01269 0.01287 0.0131 0.01345 0.01392 0.01407 0.01286 0.0198 0.01417 0.01223 0.01153 0.01104 0.01067 0.01049 
0.01234 0.01232 0.01233 0.01235 0.01239 0.01245 0.01255 0.01269 0.01287 0.0131 0.01345 0.01392 0.01407 0.01286 0.0198 0.01417 0.01223 0.01153 0.01104 0.01067 0.01049 
0.01234 0.01232 0.01233 0.01235 0.01239 0.01245 0.01255 0.01269 0.01287 0.0131 0.01345 0.01392 0.01407 0.01286 0.0198 0.01417 0.01223 0.01153 0.01104 0.01067 0.01049 
0.01234 0.01232 0.01233 0.01235 0.01239 0.01245 0.01255 0.01269 0.01287 0.0131 0.01345 0.01392 0.01407 0.01286 0.0198 0.01417 0.01223 0.01153 0.01104 0.01067 0.01049 
0.01234 0.01232 0.01233 0.01235 0.01239 0.01245 0.01255 0.01269 0.01287 0.0131 0.01345 0.01392 0.01407 0.01286 0.0198 0.01417 0.01223 0.01153 0.01104 0.01067 0.01049 
0.01234 0.01232 0.01233 0.01235 0.01239 0.01245 0.01255 0.01269 0.01287 0.0131 0.01345 0.01392 0.01407 0.01286 0.0198 0.01417 0.01223 0.01153 0.01104 0.01067 0.01049 
0.01234 0.01232 0.01233 0.01235 0.01239 0.01245 0.01255 0.01269 0.01287 0.0131 0.01345 0.01392 0.01407 0.01286 0.0198 0.01417 0.01223 0.01153 0.01104 0.01067 0.01049 
0.01234 0.01232 0.01233 0.01235 0.01239 0.01245 0.01255 0.01269 0.01287 0.0131 0.01345 0.01392 0.01407 0.01286 0.0198 0.01417 0.01223 0.01153 0.01104 0.01067 0.01049 
0.01234 0.01232 0.01233 0.01235 0.01239 0.01245 0.01255 0.01269 0.01287 0.0131 0.01345 0.01392 0.01407 0.01286 0.0198 0.01417 0.01223 0.01153 0.01104 0.01067 0.01049 
0.01234 0.01232 0.01233 0.01235 0.01239 0.01245 0.01255 0.01269 0.01287 0.0131 0.01345 0.01392 0.01407 0.01286 0.0198 0.01417 0.01223 0.01153 0.01104 0.01067 0.01049 
0.01234 0.01232 0.01233 0.01235 0.01239 0.01245 0.01255 0.01269 0.01287 0.0131 0.01345 0.01392 0.01407 0.01286 0.0198 0.01417 0.01223 0.01153 0.01104 0.01067 0.01049 
0.01234 0.01232 0.01233 0.01235 0.01239 0.01245 0.01255 0.01269 0.01287 0.0131 0.01345 0.01392 0.01407 0.01286 0.0198 0.01417 0.01223 0.01153 0.01104 0.01067 0.01049 
0.01234 0.01232 0.01233 0.01235 0.01239 0.01245 0.01255 0.01269 0.01287 0.0131 0.01345 0.01392 0.01407 0.01286 0.0198 0.01417 0.01223 0.01153 0.01104 0.01067 0.01049 
0.01234 0.01232 0.01233 0.01235 0.01239 0.01245 0.01255 0.01269 0.01287 0.0131 0.01345 0.01392 0.01407 0.01286 0.0198 0.01417 0.01223 0.01153 0.01104 0.01067 0.01049 
0.01234 0.01232 0.01233 0.01235 0.01239 0.01245 0.01255 0.01269 0.01287 0.0131 0.01345 0.01392 0.01407 0.01286 0.0198 0.01417 0.01223 0.01153 0.01104 0.01067 0.01049 
0.01234 0.01232 0.01233 0.01235 0.01239 0.01245 0.01255 0.01269 0.01287 0.0131 0.01345 0.01392 0.01407 0.01286 0.0198 0.01417 0.01223 0.01153 0.01104 0.01067 0.01049 
0.01234 0.01232 0.01233 0.01235 0.01239 0.01245 0.01255 0.01269 0.01287 0.0131 0.01345 0.01392 0.01407 0.01286 0.0198 0.01417 0.01223 0.01153 0.01104 0.01067 0.01049 
0.01234 0.01232 0.01233 0.01235 0.01239 0.01245 0.01255 0.01269 0.01287 0.0131 0.01345 0.01392 0.01407 0.01286 0.0198 0.01417 0.01223 0.01153 0.01104 0.01067 0.01049 
0.01234 0.01232 0.01233 0.01235 0.01239 0.01245 0.01255 0.01269 0.01287 0.0131 0.01345 0.01392 0.01407 0.01286 0.0198 0.01417 0.01223 0.01153 0.01104 0.01067 0.01049 
0.01234 0.01232 0.01233 0.01235 0.01239 0.01245 0.01255 0.01269 0.01287 0.0131 0.01345 0.01392 0.01407 0.01286 0.0198 0.01417 0.01223 0.01153 0.01104 0.01067 0.01049 
0.01234 0.01232 0.01233 0.01235 0.01239 0.01245 0.01255 0.01269 0.01287 0.0131 0.01345 0.01392 0.01407 0.01286 0.0198 0.01417 0.01223 0.01153 0.01104 0.01067 0.01049 
0.01234 0.01232 0.01233 0.01235 0.01239 0.01245 0.01255 0.01269 0.01287 0.0131 0.01345 0.01392 0.01407 0.01286 0.0198 0.01417 0.01223 0.01153 0.01104 0.01067 0.01049 
0.01234 0.01232 0.01233 0.01235 0.01239 0.01245 0.01255 0.01269 0.01287 0.0131 0.01345 0.01392 0.01407 0.01286 0.0198 0.01417 0.01223 0.01153 0.01104 0.01067 0.01049 
0.01234 0.01232 0.01233 0.01235 0.01239 0.01245 0.01255 0.01269 0.01287 0.0131 0.01345 0.01392 0.01407 0.01286 0.0198 0.01417 0.01223 0.01153 0.01104 0.01067 0.01049 
0.01234 0.01232 0.01233 0.01235 0.01239 0.01245 0.01255 0.01269 0.01287 0.0131 0.01345 0.01392 0.01407 0.01286 0.0198 0.01417 0.01223 0.01153 0.01104 0.01067 0.01049 
0.01234 0.01232 0.01233 0.01235 0.01239 0.01245 0.01255 0.01269 0.01287 0.0131 0.01345 0.01392 0.01407 0.01286 0.0198 0.01417 0.01223 0.01153 0.01104 0.01067 0.01049 
</DataArray>
</PointData>
</Piece>
</ImageData>
</VTKFile>
