<VTKFile type="ImageData">
<ImageData Origin="0 -10 0" Spacing="0.5 0.5 1" WholeExtent="0 20 0 40 0 0">
<Piece Extent="0 20 0 40 0 0">
<PointData>
<DataArray Name="f" NumberOfComponents="1" format="ascii" type="Float64">
2.465e-12 4.062e-14 1.199e-18 0 0 0 0 0 0 0 0 0 0 0 0 0 0 0 0 0 0 
8.938e-10 1.908e-11 8.377e-15 7.396e-17 0 0 0 0 0 0 0 0 0 0 0 0 0 0 0 0 0 
2.264e-08 9.7e-10 6.565e-12 1.456e-13 6.439e-18 2.58e-20 0 0 0 0 0 0 0 0 0 0 0 0 0 0 0 
3.434e-07 3.71e-08 2.05e-09 5.87e-11 3.868e-14 6.851e-16 6.918e-18 3.169e-20 0 0 0 0 0 0 0 0 0 0 0 0 0 
2.052e-06 3.963e-07 4.345e-08 2.514e-09 2.629e-11 1.17e-12 3.635e-14 7.362e-16 8.674e-18 4.769e-20 0 0 0 0 0 0 0 0 0 0 0 
6.807e-06 2.296e-06 4.848e-07 6.214e-08 3.991e-09 1.968e-10 1.162e-11 4.838e-13 1.334e-14 2.187e-16 1.735e-18 0 0 0 0 0 0 0 0 0 0 
1.311e-05 7.02e-06 2.451e-06 5.464e-07 7.104e-08 6.665e-09 5.983e-10 3.795e-11 1.598e-12 4.015e-14 4.902e-16 1.774e-18 0 0 0 0 0 0 0 0 0 
1.608e-05 1.315e-05 7.185e-06 2.583e-06 5.826e-07 9.307e-08 1.218e-08 1.123e-09 6.892e-11 2.539e-12 4.623e-14 2.627e-16 8.248e-20 0 0 0 0 0 0 0 0 
1.301e-05 1.596e-05 1.329e-05 7.409e-06 2.694e-06 6.806e-07 1.281e-07 1.695e-08 1.493e-09 7.966e-11 2.144e-12 1.91e-14 1.197e-17 0 0 0 0 0 0 0 0 
6.977e-06 1.279e-05 1.602e-05 1.356e-05 7.632e-06 2.931e-06 7.934e-07 1.501e-07 1.894e-08 1.459e-09 5.806e-11 8.119e-13 1.013e-15 0 0 0 0 0 0 0 0 
2.442e-06 6.727e-06 1.267e-05 1.613e-05 1.38e-05 7.92e-06 3.106e-06 8.443e-07 1.53e-07 1.708e-08 1.008e-09 2.223e-11 5.499e-14 0 0 0 0 0 0 0 0 
5.375e-07 2.266e-06 6.484e-06 1.249e-05 1.619e-05 1.389e-05 7.994e-06 3.151e-06 8.267e-07 1.348e-07 1.189e-08 4.154e-10 2.032e-12 0 0 0 0 0 0 0 0 
6.995e-08 4.669e-07 2.081e-06 6.18e-06 1.23e-05 1.601e-05 1.378e-05 7.985e-06 3.069e-06 7.383e-07 9.835e-08 5.5e-09 5.301e-11 0 0 0 0 0 0 0 0 
4.874e-09 5.474e-08 3.965e-07 1.887e-06 5.924e-06 1.205e-05 1.591e-05 1.381e-05 7.901e-06 2.848e-06 5.812e-07 5.266e-08 9.984e-10 0 0 0 0 0 0 0 0 
1.542e-10 3.263e-09 4.104e-08 3.345e-07 1.732e-06 5.785e-06 1.211e-05 1.613e-05 1.402e-05 7.719e-06 2.46e-06 3.675e-07 1.372e-08 0 0 0 0 0 0 0 0 
1.609e-12 8.254e-11 1.982e-09 3.128e-08 2.849e-07 1.692e-06 5.861e-06 1.233e-05 1.671e-05 1.442e-05 7.365e-06 1.859e-06 1.377e-07 2.089e-19 0 0 0 0 0 0 0 
2.121e-15 6.513e-13 3.301e-11 1.32e-09 2.303e-08 2.799e-07 1.695e-06 5.837e-06 1.274e-05 1.779e-05 1.507e-05 6.656e-06 9.982e-07 1.662e-15 0 0 0 0 0 0 0 
1.387e-20 6.839e-16 7.495e-14 1.906e-11 6.953e-10 2.326e-08 2.627e-07 1.545e-06 5.653e-06 1.335e-05 1.967e-05 1.603e-05 5.093e-06 8.568e-12 6.215e-18 0 0 0 0 0 0 
0 0 1.011e-18 4.112e-14 3.319e-12 7.816e-10 1.756e-08 1.864e-07 1.213e-06 5.155e-06 1.418e-05 2.322e-05 1.738e-05 2.562e-08 4.603e-13 5.459e-18 0 0 0 0 0 
0 0 0 0 1.478e-16 5.296e-12 2.579e-10 5.677e-09 7.583e-08 6.664e-07 3.912e-06 1.489e-05 3.349e-05 3.407e-05 8.012e-09 1.995e-13 4.195e-19 0 0 0 0 
0 0 0 0 0 0 0 0 0 0 2.225e-18 1.663e-12 1.624e-07 0.003581 2.898e-05 2.134e-09 9.539e-15 0 0 0 0 
0 0 0 0 0 0 0 0 0 0 0 3.303e-17 4.269e-12 1.213e-07 3.202e-05 1.515e-05 4.027e-06 6.934e-07 7.95e-08 5.988e-09 3.252e-10 
0 0 0 0 0 0 0 0 0 0 0 0 4.096e-17 1.513e-12 1.594e-05 2.269e-05 1.423e-05 5.249e-06 1.247e-06 1.931e-07 2.129e-08 
0 0 0 0 0 0 0 0 0 0 0 0 0 5.903e-18 4.743e-06 1.558e-05 1.957e-05 1.347e-05 5.765e-06 1.588e-06 3.063e-07 
0 0 0 0 0 0 0 0 0 0 0 0 0 0 9.393e-07 6.481e-06 1.496e-05 1.79e-05 1.294e-05 5.973e-06 1.906e-06 
0 0 0 0 0 0 0 0 0 0 0 0 0 0 1.306e-07 1.816e-06 7.317e-06 1.449e-05 1.694e-05 1.259e-05 6.392e-06 
0 0 0 0 0 0 0 0 0 0 0 0 0 0 1.309e-08 3.605e-07 2.449e-06 7.763e-06 1.421e-05 1.645e-05 1.286e-05 
0 0 0 0 0 0 0 0 0 0 0 0 0 0 9.569e-10 5.186e-08 5.8e-07 2.868e-06 8.013e-06 1.409e-05 1.652e-05 
0 0 0 0 0 0 0 0 0 0 0 0 0 0 5.099e-11 5.435e-09 9.839e-08 7.448e-07 3.115e-06 8.149e-06 1.402e-05 
0 0 0 0 0 0 0 0 0 0 0 0 0 0 1.96e-12 4.118e-10 1.192e-08 1.362e-07 8.403e-07 3.219e-06 7.992e-06 
0 0 0 0 0 0 0 0 0 0 0 0 0 0 5.315e-14 2.209e-11 1.014e-09 1.73e-08 1.557e-07 8.631e-07 3.054e-06 
0 0 0 0 0 0 0 0 0 0 0 0 0 0 9.801e-16 8.088e-13 5.847e-11 1.48e-09 1.93e-08 1.536e-07 7.689e-07 
0 0 0 0 0 0 0 0 0 0 0 0 0 0 1.159e-17 1.906e-14 2.163e-12 8.088e-11 1.523e-09 1.736e-08 1.226e-07 
0 0 0 0 0 0 0 0 0 0 0 0 0 0 7.991e-20 2.625e-16 4.669e-14 2.581e-12 7.037e-11 1.151e-09 1.155e-08 
0 0 0 0 0 0 0 0 0 0 0 0 0 0 0 1.774e-18 4.956e-16 4.083e-14 1.632e-12 3.89e-11 5.659e-10 
0 0 0 0 0 0 0 0 0 0 0 0 0 0 0 0 1.754e-18 2.225e-16 1.362e-14 4.957e-13 1.109e-11 
0 0 0 0 0 0 0 0 0 0 0 0 0 0 0 0 0 4.822e-20 8.822e-18 7.518e-16 3.724e-14 
0 0 0 0 0 0 0 0 0 0 0 0 0 0 0 0 0 0 0 3.204e-20 7.038e-18 
0 0 0 0 0 0 0 0 0 0 0 0 0 0 0 0 0 0 0 0 0 
0 0 0 0 0 0 0 0 0 0 0 0 0 0 0 0 0 0 0 0 0 
0 0 0 0 0 0 0 0 0 0 0 0 0 0 0 0 0 0 0 0 0 
</DataArray>
<DataArray Name="E" NumberOfComponents="1" format="ascii" type="Float64">
6.25 6 5.5 5 4.5 4 3.5 3 2.5 2 1.5 0.9997 0.4997 0.0001805 -0.4994 -0.9993 -1.499 -1.999 -2.499 -2.999 -3.249 
6.25 6 5.5 5 4.5 4 3.5 3 2.5 2 1.5 0.9997 0.4997 0.0001805 -0.4994 -0.9993 -1.499 -1.999 -2.499 -2.999 -3.249 
6.25 6 5.5 5 4.5 4 3.5 3 2.5 2 1.5 0.9997 0.4997 0.0001805 -0.4994 -0.9993 -1.499 -1.999 -2.499 -2.999 -3.249 
6.25 6 5.5 5 4.5 4 3.5 3 2.5 2 1.5 0.9997 0.4997 0.0001805 -0.4994 -0.9993 -1.499 -1.999 -2.499 -2.999 -3.249 
6.25 6 5.5 5 4.5 4 3.5 3 2.5 2 1.5 0.9997 0.4997 0.0001805 -0.4994 -0.9993 -1.499 -1.999 -2.499 -2.999 -3.249 
6.25 6 5.5 5 4.5 4 3.5 3 2.5 2 1.5 0.9997 0.4997 0.0001805 -0.4994 -0.9993 -1.499 -1.999 -2.499 -2.999 -3.249 
6.25 6 5.5 5 4.5 4 3.5 3 2.5 2 1.5 0.9997 0.4997 0.0001805 -0.4994 -0.9993 -1.499 -1.999 -2.499 -2.999 -3.249 
6.25 6 5.5 5 4.5 4 3.5 3 2.5 2 1.5 0.9997 0.4997 0.0001805 -0.4994 -0.9993 -1.499 -1.999 -2.499 -2.999 -3.249 
6.25 6 5.5 5 4.5 4 3.5 3 2.5 2 1.5 0.9997 0.4997 0.0001805 -0.4994 -0.9993 -1.499 -1.999 -2.499 -2.999 -3.249 
6.25 6 5.5 5 4.5 4 3.5 3 2.5 2 1.5 0.9997 0.4997 0.0001805 -0.4994 -0.9993 -1.499 -1.999 -2.499 -2.999 -3.249 
6.25 6 5.5 5 4.5 4 3.5 3 2.5 2 1.5 0.9997 0.4997 0.0001805 -0.4994 -0.9993 -1.499 -1.999 -2.499 -2.999 -3.249 
6.25 6 5.5 5 4.5 4 3.5 3 2.5 2 1.5 0.9997 0.4997 0.0001805 -0.4994 -0.9993 -1.499 -1.999 -2.499 -2.999 -3.249 
6.25 6 5.5 5 4.5 4 3.5 3 2.5 2 1.5 0.9997 0.4997 0.0001805 -0.4994 -0.9993 -1.499 -1.999 -2.499 -2.999 -3.249 
6.25 6 5.5 5 4.5 4 3.5 3 2.5 2 1.5 0.9997 0.4997 0.0001805 -0.4994 -0.9993 -1.499 -1.999 -2.499 -2.999 -3.249 
6.25 6 5.5 5 4.5 4 3.5 3 2.5 2 1.5 0.9997 0.4997 0.0001805 -0.4994 -0.9993 -1.499 -1.999 -2.499 -2.999 -3.249 
6.25 6 5.5 5 4.5 4 3.5 3 2.5 2 1.5 0.9997 0.4997 0.0001805 -0.4994 -0.9993 -1.499 -1.999 -2.499 -2.999 -3.249 
6.25 6 5.5 5 4.5 4 3.5 3 2.5 2 1.5 0.9997 0.4997 0.0001805 -0.4994 -0.9993 -1.499 -1.999 -2.499 -2.999 -3.249 
6.25 6 5.5 5 4.5 4 3.5 3 2.5 2 1.5 0.9997 0.4997 0.0001805 -0.4994 -0.9993 -1.499 -1.999 -2.499 -2.999 -3.249 
6.25 6 5.5 5 4.5 4 3.5 3 2.5 2 1.5 0.9997 0.4997 0.0001805 -0.4994 -0.9993 -1.499 -1.999 -2.499 -2.999 -3.249 
6.25 6 5.5 5 4.5 4 3.5 3 2.5 2 1.5 0.9997 0.4997 0.0001805 -0.4994 -0.9993 -1.499 -1.999 -2.499 -2.999 -3.249 
6.25 6 5.5 5 4.5 4 3.5 3 2.5 2 1.5 0.9997 0.4997 0.0001805 -0.4994 -0.9993 -1.499 -1.999 -2.499 -2.999 -3.249 
6.25 6 5.5 5 4.5 4 3.5 3 2.5 2 1.5 0.9997 0.4997 0.0001805 -0.4994 -0.9993 -1.499 -1.999 -2.499 -2.999 -3.249 
6.25 6 5.5 5 4.5 4 3.5 3 2.5 2 1.5 0.9997 0.4997 0.0001805 -0.4994 -0.9993 -1.499 -1.999 -2.499 -2.999 -3.249 
6.25 6 5.5 5 4.5 4 3.5 3 2.5 2 1.5 0.9997 0.4997 0.0001805 -0.4994 -0.9993 -1.499 -1.999 -2.499 -2.999 -3.249 
6.25 6 5.5 5 4.5 4 3.5 3 2.5 2 1.5 0.9997 0.4997 0.0001805 -0.4994 -0.9993 -1.499 -1.999 -2.499 -2.999 -3.249 
6.25 6 5.5 5 4.5 4 3.5 3 2.5 2 1.5 0.9997 0.4997 0.0001805 -0.4994 -0.9993 -1.499 -1.999 -2.499 -2.999 -3.249 
6.25 6 5.5 5 4.5 4 3.5 3 2.5 2 1.5 0.9997 0.4997 0.0001805 -0.4994 -0.9993 -1.499 -1.999 -2.499 -2.999 -3.249 
6.25 6 5.5 5 4.5 4 3.5 3 2.5 2 1.5 0.9997 0.4997 0.0001805 -0.4994 -0.9993 -1.499 -1.999 -2.499 -2.999 -3.249 
6.25 6 5.5 5 4.5 4 3.5 3 2.5 2 1.5 0.9997 0.4997 0.0001805 -0.4994 -0.9993 -1.499 -1.999 -2.499 -2.999 -3.249 
6.25 6 5.5 5 4.5 4 3.5 3 2.5 2 1.5 0.9997 0.4997 0.0001805 -0.4994 -0.9993 -1.499 -1.999 -2.499 -2.999 -3.249 
6.25 6 5.5 5 4.5 4 3.5 3 2.5 2 1.5 0.9997 0.4997 0.0001805 -0.4994 -0.9993 -1.499 -1.999 -2.499 -2.999 -3.249 
6.25 6 5.5 5 4.5 4 3.5 3 2.5 2 1.5 0.9997 0.4997 0.0001805 -0.4994 -0.9993 -1.499 -1.999 -2.499 -2.999 -3.249 
6.25 6 5.5 5 4.5 4 3.5 3 2.5 2 1.5 0.9997 0.4997 0.0001805 -0.4994 -0.9993 -1.499 -1.999 -2.499 -2.999 -3.249 
6.25 6 5.5 5 4.5 4 3.5 3 2.5 2 1.5 0.9997 0.4997 0.0001805 -0.4994 -0.9993 -1.499 -1.999 -2.499 -2.999 -3.249 
6.25 6 5.5 5 4.5 4 3.5 3 2.5 2 1.5 0.9997 0.4997 0.0001805 -0.4994 -0.9993 -1.499 -1.999 -2.499 -2.999 -3.249 
6.25 6 5.5 5 4.5 4 3.5 3 2.5 2 1.5 0.9997 0.4997 0.0001805 -0.4994 -0.9993 -1.499 -1.999 -2.499 -2.999 -3.249 
6.25 6 5.5 5 4.5 4 3.5 3 2.5 2 1.5 0.9997 0.4997 0.0001805 -0.4994 -0.9993 -1.499 -1.999 -2.499 -2.999 -3.249 
6.25 6 5.5 5 4.5 4 3.5 3 2.5 2 1.5 0.9997 0.4997 0.0001805 -0.4994 -0.9993 -1.499 -1.999 -2.499 -2.999 -3.249 
6.25 6 5.5 5 4.5 4 3.5 3 2.5 2 1.5 0.9997 0.4997 0.0001805 -0.4994 -0.9993 -1.499 -1.999 -2.499 -2.999 -3.249 
6.25 6 5.5 5 4.5 4 3.5 3 2.5 2 1.5 0.9997 0.4997 0.0001805 -0.4994 -0.9993 -1.499 -1.999 -2.499 -2.999 -3.249 
6.25 6 5.5 5 4.5 4 3.5 3 2.5 2 1.5 0.9997 0.4997 0.0001805 -0.4994 -0.9993 -1.499 -1.999 -2.499 -2.999 -3.249 
</DataArray>
<DataArray Name="ne" NumberOfComponents="1" format="ascii" type="Float64">
3.267e-05 3.262e-05 3.265e-05 3.266e-05 3.27e-05 3.276e-05 3.291e-05 3.309e-05 3.33e-05 3.355e-05 3.383e-05 3.369e-05 3.057e-05 0.001809 4.433e-05 3.325e-05 3.385e-05 3.39e-05 3.388e-05 3.386e-05 3.417e-05 
3.267e-05 3.262e-05 3.265e-05 3.266e-05 3.27e-05 3.276e-05 3.291e-05 3.309e-05 3.33e-05 3.355e-05 3.383e-05 3.369e-05 3.057e-05 0.001809 4.433e-05 3.325e-05 3.385e-05 3.39e-05 3.388e-05 3.386e-05 3.417e-05 
3.267e-05 3.262e-05 3.265e-05 3.266e-05 3.27e-05 3.276e-05 3.291e-05 3.309e-05 3.33e-05 3.355e-05 3.383e-05 3.369e-05 3.057e-05 0.001809 4.433e-05 3.325e-05 3.385e-05 3.39e-05 3.388e-05 3.386e-05 3.417e-05 
3.267e-05 3.262e-05 3.265e-05 3.266e-05 3.27e-05 3.276e-05 3.291e-05 3.309e-05 3.33e-05 3.355e-05 3.383e-05 3.369e-05 3.057e-05 0.001809 4.433e-05 3.325e-05 3.385e-05 3.39e-05 3.388e-05 3.386e-05 3.417e-05 
3.267e-05 3.262e-05 3.265e-05 3.266e-05 3.27e-05 3.276e-05 3.291e-05 3.309e-05 3.33e-05 3.355e-05 3.383e-05 3.369e-05 3.057e-05 0.001809 4.433e-05 3.325e-05 3.385e-05 3.39e-05 3.388e-05 3.386e-05 3.417e-05 
3.267e-05 3.262e-05 3.265e-05 3.266e-05 3.27e-05 3.276e-05 3.291e-05 3.309e-05 3.33e-05 3.355e-05 3.383e-05 3.369e-05 3.057e-05 0.001809 4.433e-05 3.325e-05 3.385e-05 3.39e-05 3.388e-05 3.386e-05 3.417e-05 
3.267e-05 3.262e-05 3.265e-05 3.266e-05 3.27e-05 3.276e-05 3.291e-05 3.309e-05 3.33e-05 3.355e-05 3.383e-05 3.369e-05 3.057e-05 0.001809 4.433e-05 3.325e-05 3.385e-05 3.39e-05 3.388e-05 3.386e-05 3.417e-05 
3.267e-05 3.262e-05 3.265e-05 3.266e-05 3.27e-05 3.276e-05 3.291e-05 3.309e-05 3.33e-05 3.355e-05 3.383e-05 3.369e-05 3.057e-05 0.001809 4.433e-05 3.325e-05 3.385e-05 3.39e-05 3.388e-05 3.386e-05 3.417e-05 
3.267e-05 3.262e-05 3.265e-05 3.266e-05 3.27e-05 3.276e-05 3.291e-05 3.309e-05 3.33e-05 3.355e-05 3.383e-05 3.369e-05 3.057e-05 0.001809 4.433e-05 3.325e-05 3.385e-05 3.39e-05 3.388e-05 3.386e-05 3.417e-05 
3.267e-05 3.262e-05 3.265e-05 3.266e-05 3.27e-05 3.276e-05 3.291e-05 3.309e-05 3.33e-05 3.355e-05 3.383e-05 3.369e-05 3.057e-05 0.001809 4.433e-05 3.325e-05 3.385e-05 3.39e-05 3.388e-05 3.386e-05 3.417e-05 
3.267e-05 3.262e-05 3.265e-05 3.266e-05 3.27e-05 3.276e-05 3.291e-05 3.309e-05 3.33e-05 3.355e-05 3.383e-05 3.369e-05 3.057e-05 0.001809 4.433e-05 3.325e-05 3.385e-05 3.39e-05 3.388e-05 3.386e-05 3.417e-05 
3.267e-05 3.262e-05 3.265e-05 3.266e-05 3.27e-05 3.276e-05 3.291e-05 3.309e-05 3.33e-05 3.355e-05 3.383e-05 3.369e-05 3.057e-05 0.001809 4.433e-05 3.325e-05 3.385e-05 3.39e-05 3.388e-05 3.386e-05 3.417e-05 
3.267e-05 3.262e-05 3.265e-05 3.266e-05 3.27e-05 3.276e-05 3.291e-05 3.309e-05 3.33e-05 3.355e-05 3.383e-05 3.369e-05 3.057e-05 0.001809 4.433e-05 3.325e-05 3.385e-05 3.39e-05 3.388e-05 3.386e-05 3.417e-05 
3.267e-05 3.262e-05 3.265e-05 3.266e-05 3.27e-05 3.276e-05 3.291e-05 3.309e-05 3.33e-05 3.355e-05 3.383e-05 3.369e-05 3.057e-05 0.001809 4.433e-05 3.325e-05 3.385e-05 3.39e-05 3.388e-05 3.386e-05 3.417e-05 
3.267e-05 3.262e-05 3.265e-05 3.266e-05 3.27e-05 3.276e-05 3.291e-05 3.309e-05 3.33e-05 3.355e-05 3.383e-05 3.369e-05 3.057e-05 0.001809 4.433e-05 3.325e-05 3.385e-05 3.39e-05 3.388e-05 3.386e-05 3.417e-05 
3.267e-05 3.262e-05 3.265e-05 3.266e-05 3.27e-05 3.276e-05 3.291e-05 3.309e-05 3.33e-05 3.355e-05 3.383e-05 3.369e-05 3.057e-05 0.001809 4.433e-05 3.325e-05 3.385e-05 3.39e-05 3.388e-05 3.386e-05 3.417e-05 
3.267e-05 3.262e-05 3.265e-05 3.266e-05 3.27e-05 3.276e-05 3.291e-05 3.309e-05 3.33e-05 3.355e-05 3.383e-05 3.369e-05 3.057e-05 0.001809 4.433e-05 3.325e-05 3.385e-05 3.39e-05 3.388e-05 3.386e-05 3.417e-05 
3.267e-05 3.262e-05 3.265e-05 3.266e-05 3.27e-05 3.276e-05 3.291e-05 3.309e-05 3.33e-05 3.355e-05 3.383e-05 3.369e-05 3.057e-05 0.001809 4.433e-05 3.325e-05 3.385e-05 3.39e-05 3.388e-05 3.386e-05 3.417e-05 
3.267e-05 3.262e-05 3.265e-05 3.266e-05 3.27e-05 3.276e-05 3.291e-05 3.309e-05 3.33e-05 3.355e-05 3.383e-05 3.369e-05 3.057e-05 0.001809 4.433e-05 3.325e-05 3.385e-05 3.39e-05 3.388e-05 3.386e-05 3.417e-05 
3.267e-05 3.262e-05 3.265e-05 3.266e-05 3.27e-05 3.276e-05 3.291e-05 3.309e-05 3.33e-05 3.355e-05 3.383e-05 3.369e-05 3.057e-05 0.001809 4.433e-05 3.325e-05 3.385e-05 3.39e-05 3.388e-05 3.386e-05 3.417e-05 
3.267e-05 3.262e-05 3.265e-05 3.266e-05 3.27e-05 3.276e-05 3.291e-05 3.309e-05 3.33e-05 3.355e-05 3.383e-05 3.369e-05 3.057e-05 0.001809 4.433e-05 3.325e-05 3.385e-05 3.39e-05 3.388e-05 3.386e-05 3.417e-05 
3.267e-05 3.262e-05 3.265e-05 3.266e-05 3.27e-05 3.276e-05 3.291e-05 3.309e-05 3.33e-05 3.355e-05 3.383e-05 3.369e-05 3.057e-05 0.001809 4.433e-05 3.325e-05 3.385e-05 3.39e-05 3.388e-05 3.386e-05 3.417e-05 
3.267e-05 3.262e-05 3.265e-05 3.266e-05 3.27e-05 3.276e-05 3.291e-05 3.309e-05 3.33e-05 3.355e-05 3.383e-05 3.369e-05 3.057e-05 0.001809 4.433e-05 3.325e-05 3.385e-05 3.39e-05 3.388e-05 3.386e-05 3.417e-05 
3.267e-05 3.262e-05 3.265e-05 3.266e-05 3.27e-05 3.276e-05 3.291e-05 3.309e-05 3.33e-05 3.355e-05 3.383e-05 3.369e-05 3.057e-05 0.001809 4.433e-05 3.325e-05 3.385e-05 3.39e-05 3.388e-05 3.386e-05 3.417e-05 
3.267e-05 3.262e-05 3.265e-05 3.266e-05 3.27e-05 3.276e-05 3.291e-05 3.309e-05 3.33e-05 3.355e-05 3.383e-05 3.369e-05 3.057e-05 0.001809 4.433e-05 3.325e-05 3.385e-05 3.39e-05 3.388e-05 3.386e-05 3.417e-05 
3.267e-05 3.262e-05 3.265e-05 3.266e-05 3.27e-05 3.276e-05 3.291e-05 3.309e-05 3.33e-05 3.355e-05 3.383e-05 3.369e-05 3.057e-05 0.001809 4.433e-05 3.325e-05 3.385e-05 3.39e-05 3.388e-05 3.386e-05 3.417e-05 
3.267e-05 3.262e-05 3.265e-05 3.266e-05 3.27e-05 3.276e-05 3.291e-05 3.309e-05 3.33e-05 3.355e-05 3.383e-05 3.369e-05 3.057e-05 0.001809 4.433e-05 3.325e-05 3.385e-05 3.39e-05 3.388e-05 3.386e-05 3.417e-05 
3.267e-05 3.262e-05 3.265e-05 3.266e-05 3.27e-05 3.276e-05 3.291e-05 3.309e-05 3.33e-05 3.355e-05 3.383e-05 3.369e-05 3.057e-05 0.001809 4.433e-05 3.325e-05 3.385e-05 3.39e-05 3.388e-05 3.386e-05 3.417e-05 
3.267e-05 3.262e-05 3.265e-05 3.266e-05 3.27e-05 3.276e-05 3.291e-05 3.309e-05 3.33e-05 3.355e-05 3.383e-05 3.369e-05 3.057e-05 0.001809 4.433e-05 3.325e-05 3.385e-05 3.39e-05 3.388e-05 3.386e-05 3.417e-05 
3.267e-05 3.262e-05 3.265e-05 3.266e-05 3.27e-05 3.276e-05 3.291e-05 3.309e-05 3.33e-05 3.355e-05 3.383e-05 3.369e-05 3.057e-05 0.001809 4.433e-05 3.325e-05 3.385e-05 3.39e-05 3.388e-05 3.386e-05 3.417e-05 
3.267e-05 3.262e-05 3.265e-05 3.266e-05 3.27e-05 3.276e-05 3.291e-05 3.309e-05 3.33e-05 3.355e-05 3.383e-05 3.369e-05 3.057e-05 0.001809 4.433e-05 3.325e-05 3.385e-05 3.39e-05 3.388e-05 3.386e-05 3.417e-05 
3.267e-05 3.262e-05 3.265e-05 3.266e-05 3.27e-05 3.276e-05 3.291e-05 3.309e-05 3.33e-05 3.355e-05 3.383e-05 3.369e-05 3.057e-05 0.001809 4.433e-05 3.325e-05 3.385e-05 3.39e-05 3.388e-05 3.386e-05 3.417e-05 
3.267e-05 3.262e-05 3.265e-05 3.266e-05 3.27e-05 3.276e-05 3.291e-05 3.309e-05 3.33e-05 3.355e-05 3.383e-05 3.369e-05 3.057e-05 0.001809 4.433e-05 3.325e-05 3.385e-05 3.39e-05 3.388e-05 3.386e-05 3.417e-05 
3.267e-05 3.262e-05 3.265e-05 3.266e-05 3.27e-05 3.276e-05 3.291e-05 3.309e-05 3.33e-05 3.355e-05 3.383e-05 3.369e-05 3.057e-05 0.001809 4.433e-05 3.325e-05 3.385e-05 3.39e-05 3.388e-05 3.386e-05 3.417e-05 
3.267e-05 3.262e-05 3.265e-05 3.266e-05 3.27e-05 3.276e-05 3.291e-05 3.309e-05 3.33e-05 3.355e-05 3.383e-05 3.369e-05 3.057e-05 0.001809 4.433e-05 3.325e-05 3.385e-05 3.39e-05 3.388e-05 3.386e-05 3.417e-05 
3.267e-05 3.262e-05 3.265e-05 3.266e-05 3.27e-05 3.276e-05 3.291e-05 3.309e-05 3.33e-05 3.355e-05 3.383e-05 3.369e-05 3.057e-05 0.001809 4.433e-05 3.325e-05 3.385e-05 3.39e-05 3.388e-05 3.386e-05 3.417e-05 
3.267e-05 3.262e-05 3.265e-05 3.266e-05 3.27e-05 3.276e-05 3.291e-05 3.309e-05 3.33e-05 3.355e-05 3.383e-05 3.369e-05 3.057e-05 0.001809 4.433e-05 3.325e-05 3.385e-05 3.39e-05 3.388e-05 3.386e-05 3.417e-05 
3.267e-05 3.262e-05 3.265e-05 3.266e-05 3.27e-05 3.276e-05 3.291e-05 3.309e-05 3.33e-05 3.355e-05 3.383e-05 3.369e-05 3.057e-05 0.001809 4.433e-05 3.325e-05 3.385e-05 3.39e-05 3.388e-05 3.386e-05 3.417e-05 
3.267e-05 3.262e-05 3.265e-05 3.266e-05 3.27e-05 3.276e-05 3.291e-05 3.309e-05 3.33e-05 3.355e-05 3.383e-05 3.369e-05 3.057e-05 0.001809 4.433e-05 3.325e-05 3.385e-05 3.39e-05 3.388e-05 3.386e-05 3.417e-05 
3.267e-05 3.262e-05 3.265e-05 3.266e-05 3.27e-05 3.276e-05 3.291e-05 3.309e-05 3.33e-05 3.355e-05 3.383e-05 3.369e-05 3.057e-05 0.001809 4.433e-05 3.325e-05 3.385e-05 3.39e-05 3.388e-05 3.386e-05 3.417e-05 
3.267e-05 3.262e-05 3.265e-05 3.266e-05 3.27e-05 3.276e-05 3.291e-05 3.309e-05 3.33e-05 3.355e-05 3.383e-05 3.369e-05 3.057e-05 0.001809 4.433e-05 3.325e-05 3.385e-05 3.39e-05 3.388e-05 3.386e-05 3.417e-05 
</DataArray>
</PointData>
</Piece>
</ImageData>
</VTKFile>
