<VTKFile type="ImageData">
<ImageData Origin="0 -10 0" Spacing="0.5 0.5 1" WholeExtent="0 20 0 40 0 0">
<Piece Extent="0 20 0 40 0 0">
<PointData>
<DataArray Name="f" NumberOfComponents="1" format="ascii" type="Float64">
0.1919 0.1911 0.1906 0.1901 0.1898 0.1894 0.1892 0.189 0.1888 0.1887 0.1887 0.1887 0.1888 0.1889 0.1891 0.1894 0.1897 0.1901 0.1905 0.1908 0.1919 
0.2004 0.2003 0.2002 0.2001 0.2001 0.2 0.1999 0.1999 0.1999 0.1999 0.1998 0.1999 0.1999 0.1999 0.2 0.2 0.2001 0.2002 0.2003 0.2003 0.2004 
0.1963 0.1971 0.1975 0.1978 0.1981 0.1983 0.1985 0.1987 0.1987 0.1989 0.1988 0.1989 0.1988 0.1988 0.1986 0.1986 0.1982 0.1981 0.1975 0.1974 0.1963 
0.1804 0.1819 0.1827 0.1835 0.184 0.1846 0.1849 0.1854 0.1854 0.1859 0.1856 0.186 0.1855 0.1858 0.1849 0.1852 0.184 0.1841 0.1825 0.1825 0.1804 
0.1551 0.1573 0.1585 0.1596 0.1604 0.1612 0.1617 0.1623 0.1624 0.1629 0.1626 0.1631 0.1623 0.1628 0.1615 0.162 0.1601 0.1605 0.158 0.1582 0.1551 
0.1249 0.1272 0.1287 0.1299 0.131 0.1318 0.1325 0.1331 0.1334 0.1337 0.1337 0.1338 0.1334 0.1334 0.1325 0.1324 0.1308 0.1306 0.1283 0.1281 0.1249 
0.09385 0.09613 0.09766 0.09898 0.1001 0.101 0.1017 0.1023 0.1026 0.1029 0.1029 0.1029 0.1026 0.1024 0.1016 0.1012 0.09994 0.09943 0.09739 0.09692 0.09385 
0.06571 0.06769 0.06914 0.07041 0.07148 0.07237 0.07307 0.0736 0.07396 0.07417 0.07421 0.07413 0.07386 0.07352 0.07291 0.07236 0.07132 0.07063 0.06898 0.06833 0.06571 
0.04275 0.04428 0.04554 0.04665 0.0476 0.0484 0.04905 0.04953 0.04987 0.05005 0.05009 0.04999 0.04975 0.04941 0.04889 0.04832 0.04749 0.04678 0.0455 0.04481 0.04275 
0.02578 0.02682 0.0278 0.02868 0.02946 0.03014 0.03069 0.03112 0.03142 0.0316 0.03164 0.03157 0.03137 0.03107 0.03065 0.03015 0.0295 0.02886 0.02792 0.02728 0.02578 
0.01437 0.01498 0.01567 0.0163 0.01688 0.0174 0.01784 0.0182 0.01846 0.01863 0.0187 0.01866 0.01853 0.0183 0.01798 0.01759 0.0171 0.01659 0.01592 0.0154 0.01437 
0.007391 0.007698 0.008121 0.008527 0.008911 0.009265 0.009582 0.009854 0.01007 0.01022 0.01031 0.01032 0.01025 0.0101 0.009889 0.009612 0.009273 0.0089 0.008447 0.00806 0.007391 
0.003509 0.003626 0.003861 0.004091 0.004314 0.004529 0.00473 0.004913 0.00507 0.005194 0.005278 0.005315 0.005298 0.005228 0.005104 0.00493 0.004713 0.004466 0.004177 0.003914 0.003509 
0.001537 0.001563 0.001679 0.001794 0.001909 0.002023 0.002134 0.00224 0.002338 0.002424 0.002492 0.002536 0.00255 0.002529 0.002472 0.00238 0.002255 0.002105 0.001933 0.001768 0.001537 
0.0006233 0.0006153 0.0006664 0.0007181 0.0007704 0.0008232 0.0008764 0.0009293 0.0009812 0.00103 0.001074 0.00111 0.001132 0.001137 0.00112 0.001081 0.001019 0.0009382 0.0008426 0.0007464 0.0006233 
0.000235 0.0002206 0.000241 0.0002618 0.000283 0.0003047 0.0003269 0.0003496 0.0003728 0.0003961 0.0004188 0.0004398 0.0004572 0.0004683 0.0004701 0.0004597 0.0004354 0.0003978 0.0003493 0.0002974 0.000235 
8.32e-05 7.188e-05 7.917e-05 8.669e-05 9.442e-05 0.0001024 0.0001106 0.0001191 0.000128 0.0001372 0.0001468 0.0001564 0.0001657 0.0001738 0.0001792 0.0001801 0.0001744 0.0001607 0.0001394 0.0001135 8.32e-05 
2.814e-05 2.13e-05 2.359e-05 2.602e-05 2.855e-05 3.117e-05 3.39e-05 3.674e-05 3.971e-05 4.285e-05 4.618e-05 4.971e-05 5.342e-05 5.717e-05 6.065e-05 6.321e-05 6.379e-05 6.1e-05 5.374e-05 4.242e-05 2.814e-05 
9.27e-06 5.816e-06 6.393e-06 7.07e-06 7.802e-06 8.575e-06 9.385e-06 1.023e-05 1.113e-05 1.207e-05 1.308e-05 1.416e-05 1.533e-05 1.66e-05 1.796e-05 1.932e-05 2.046e-05 2.085e-05 1.958e-05 1.575e-05 9.27e-06 
2.985e-06 1.552e-06 1.623e-06 1.768e-06 1.947e-06 2.144e-06 2.356e-06 2.581e-06 2.819e-06 3.072e-06 3.342e-06 3.633e-06 3.949e-06 4.296e-06 4.681e-06 5.111e-06 5.58e-06 6.039e-06 6.279e-06 5.692e-06 2.985e-06 
9.297e-07 4.942e-07 4.667e-07 4.82e-07 5.14e-07 5.54e-07 5.989e-07 6.476e-07 6.998e-07 7.558e-07 8.163e-07 8.818e-07 9.536e-07 1.033e-06 1.122e-06 1.222e-06 1.336e-06 1.469e-06 1.624e-06 1.808e-06 9.297e-07 
3.62e-07 3.333e-07 3.446e-07 3.602e-07 3.722e-07 3.795e-07 3.827e-07 3.831e-07 3.817e-07 3.796e-07 3.774e-07 3.759e-07 3.757e-07 3.773e-07 3.812e-07 3.879e-07 3.982e-07 4.129e-07 4.329e-07 4.597e-07 3.62e-07 
4.817e-07 6.82e-07 8.117e-07 8.985e-07 9.491e-07 9.707e-07 9.699e-07 9.521e-07 9.218e-07 8.829e-07 8.381e-07 7.898e-07 7.394e-07 6.884e-07 6.376e-07 5.878e-07 5.395e-07 4.933e-07 4.497e-07 4.092e-07 4.817e-07 
1.475e-06 2.069e-06 2.462e-06 2.747e-06 2.931e-06 3.03e-06 3.061e-06 3.035e-06 2.967e-06 2.866e-06 2.74e-06 2.597e-06 2.442e-06 2.279e-06 2.112e-06 1.942e-06 1.773e-06 1.605e-06 1.441e-06 1.281e-06 1.475e-06 
4.759e-06 6.313e-06 7.351e-06 8.162e-06 8.725e-06 9.074e-06 9.236e-06 9.243e-06 9.122e-06 8.899e-06 8.595e-06 8.228e-06 7.813e-06 7.364e-06 6.891e-06 6.401e-06 5.901e-06 5.397e-06 4.894e-06 4.395e-06 4.759e-06 
1.459e-05 1.846e-05 2.101e-05 2.312e-05 2.466e-05 2.57e-05 2.627e-05 2.646e-05 2.631e-05 2.587e-05 2.52e-05 2.434e-05 2.332e-05 2.219e-05 2.096e-05 1.966e-05 1.831e-05 1.692e-05 1.551e-05 1.409e-05 1.459e-05 
4.216e-05 5.135e-05 5.716e-05 6.23e-05 6.612e-05 6.885e-05 7.054e-05 7.132e-05 7.128e-05 7.053e-05 6.918e-05 6.731e-05 6.502e-05 6.236e-05 5.942e-05 5.623e-05 5.285e-05 4.932e-05 4.568e-05 4.196e-05 4.216e-05 
0.0001144 0.0001352 0.0001476 0.0001593 0.000168 0.0001746 0.0001789 0.0001813 0.0001818 0.0001807 0.0001782 0.0001745 0.0001696 0.0001639 0.0001573 0.0001501 0.0001422 0.0001339 0.0001252 0.0001162 0.0001144 
0.0002916 0.0003362 0.0003608 0.0003859 0.0004044 0.000419 0.0004289 0.0004349 0.0004371 0.0004359 0.0004316 0.0004246 0.0004151 0.0004034 0.0003898 0.0003744 0.0003576 0.0003395 0.0003202 0.0003 0.0002916 
0.0006973 0.0007879 0.0008333 0.0008847 0.0009208 0.0009511 0.0009719 0.0009854 0.0009914 0.0009908 0.000984 0.0009716 0.000954 0.0009317 0.0009053 0.000875 0.0008413 0.0008045 0.0007648 0.0007226 0.0006973 
0.001565 0.001739 0.001817 0.001917 0.001982 0.002041 0.002081 0.002109 0.002122 0.002124 0.002113 0.002092 0.002062 0.002022 0.001974 0.001918 0.001855 0.001785 0.001709 0.001628 0.001565 
0.003297 0.003616 0.003736 0.003923 0.004029 0.00414 0.004207 0.004261 0.004285 0.004293 0.004276 0.004244 0.004192 0.004126 0.004043 0.003947 0.003837 0.003714 0.003579 0.003433 0.003297 
0.006527 0.007077 0.007243 0.007578 0.00773 0.007931 0.008028 0.008129 0.008162 0.008184 0.008154 0.00811 0.008025 0.007923 0.007787 0.007635 0.007454 0.007256 0.007032 0.006789 0.006527 
0.01215 0.01304 0.01324 0.01381 0.01398 0.01434 0.01444 0.01464 0.01465 0.01472 0.01464 0.01461 0.01446 0.01433 0.01411 0.0139 0.01362 0.01333 0.01298 0.01261 0.01215 
0.02126 0.02262 0.02279 0.02372 0.02383 0.02446 0.02446 0.02486 0.02475 0.02496 0.02476 0.0248 0.02453 0.02442 0.02408 0.02383 0.02342 0.02304 0.02253 0.02201 0.02126 
0.03499 0.03687 0.03691 0.03836 0.03822 0.03929 0.03903 0.03976 0.03944 0.03986 0.03951 0.03967 0.0393 0.03923 0.0388 0.03852 0.03799 0.0375 0.03683 0.03613 0.03499 
0.05404 0.05648 0.05627 0.05817 0.05784 0.05919 0.05886 0.05974 0.05946 0.05995 0.0597 0.05988 0.05959 0.05948 0.05906 0.05869 0.05808 0.05742 0.05658 0.05565 0.05404 
0.07832 0.08095 0.08084 0.08264 0.08267 0.08383 0.08401 0.08471 0.08494 0.08529 0.08539 0.08545 0.08532 0.08506 0.08464 0.08408 0.08336 0.08249 0.08146 0.08028 0.07832 
0.1063 0.1091 0.1092 0.111 0.1116 0.1127 0.1135 0.1141 0.1146 0.1149 0.115 0.1149 0.1146 0.1142 0.1136 0.1128 0.112 0.1109 0.1098 0.1085 0.1063 
0.1361 0.1394 0.14 0.1418 0.143 0.1438 0.1445 0.1449 0.145 0.145 0.1448 0.1444 0.1439 0.1432 0.1425 0.1417 0.1409 0.1399 0.1389 0.1378 0.1361 
0.1658 0.1692 0.1701 0.1706 0.1712 0.1712 0.1712 0.171 0.1707 0.1704 0.17 0.1696 0.1692 0.1688 0.1684 0.168 0.1676 0.1672 0.1668 0.1664 0.1658 
</DataArray>
<DataArray Name="E" NumberOfComponents="1" format="ascii" type="Float64">
1.893 1.865 1.814 1.766 1.722 1.681 1.642 1.605 1.57 1.535 1.501 1.467 1.432 1.396 1.359 1.319 1.278 1.233 1.184 1.132 1.104 
1.893 1.865 1.814 1.766 1.722 1.681 1.642 1.605 1.57 1.535 1.501 1.467 1.432 1.396 1.359 1.319 1.278 1.233 1.184 1.132 1.104 
1.893 1.865 1.814 1.766 1.722 1.681 1.642 1.605 1.57 1.535 1.501 1.467 1.432 1.396 1.359 1.319 1.278 1.233 1.184 1.132 1.104 
1.893 1.865 1.814 1.766 1.722 1.681 1.642 1.605 1.57 1.535 1.501 1.467 1.432 1.396 1.359 1.319 1.278 1.233 1.184 1.132 1.104 
1.893 1.865 1.814 1.766 1.722 1.681 1.642 1.605 1.57 1.535 1.501 1.467 1.432 1.396 1.359 1.319 1.278 1.233 1.184 1.132 1.104 
1.893 1.865 1.814 1.766 1.722 1.681 1.642 1.605 1.57 1.535 1.501 1.467 1.432 1.396 1.359 1.319 1.278 1.233 1.184 1.132 1.104 
1.893 1.865 1.814 1.766 1.722 1.681 1.642 1.605 1.57 1.535 1.501 1.467 1.432 1.396 1.359 1.319 1.278 1.233 1.184 1.132 1.104 
1.893 1.865 1.814 1.766 1.722 1.681 1.642 1.605 1.57 1.535 1.501 1.467 1.432 1.396 1.359 1.319 1.278 1.233 1.184 1.132 1.104 
1.893 1.865 1.814 1.766 1.722 1.681 1.642 1.605 1.57 1.535 1.501 1.467 1.432 1.396 1.359 1.319 1.278 1.233 1.184 1.132 1.104 
1.893 1.865 1.814 1.766 1.722 1.681 1.642 1.605 1.57 1.535 1.501 1.467 1.432 1.396 1.359 1.319 1.278 1.233 1.184 1.132 1.104 
1.893 1.865 1.814 1.766 1.722 1.681 1.642 1.605 1.57 1.535 1.501 1.467 1.432 1.396 1.359 1.319 1.278 1.233 1.184 1.132 1.104 
1.893 1.865 1.814 1.766 1.722 1.681 1.642 1.605 1.57 1.535 1.501 1.467 1.432 1.396 1.359 1.319 1.278 1.233 1.184 1.132 1.104 
1.893 1.865 1.814 1.766 1.722 1.681 1.642 1.605 1.57 1.535 1.501 1.467 1.432 1.396 1.359 1.319 1.278 1.233 1.184 1.132 1.104 
1.893 1.865 1.814 1.766 1.722 1.681 1.642 1.605 1.57 1.535 1.501 1.467 1.432 1.396 1.359 1.319 1.278 1.233 1.184 1.132 1.104 
1.893 1.865 1.814 1.766 1.722 1.681 1.642 1.605 1.57 1.535 1.501 1.467 1.432 1.396 1.359 1.319 1.278 1.233 1.184 1.132 1.104 
1.893 1.865 1.814 1.766 1.722 1.681 1.642 1.605 1.57 1.535 1.501 1.467 1.432 1.396 1.359 1.319 1.278 1.233 1.184 1.132 1.104 
1.893 1.865 1.814 1.766 1.722 1.681 1.642 1.605 1.57 1.535 1.501 1.467 1.432 1.396 1.359 1.319 1.278 1.233 1.184 1.132 1.104 
1.893 1.865 1.814 1.766 1.722 1.681 1.642 1.605 1.57 1.535 1.501 1.467 1.432 1.396 1.359 1.319 1.278 1.233 1.184 1.132 1.104 
1.893 1.865 1.814 1.766 1.722 1.681 1.642 1.605 1.57 1.535 1.501 1.467 1.432 1.396 1.359 1.319 1.278 1.233 1.184 1.132 1.104 
1.893 1.865 1.814 1.766 1.722 1.681 1.642 1.605 1.57 1.535 1.501 1.467 1.432 1.396 1.359 1.319 1.278 1.233 1.184 1.132 1.104 
1.893 1.865 1.814 1.766 1.722 1.681 1.642 1.605 1.57 1.535 1.501 1.467 1.432 1.396 1.359 1.319 1.278 1.233 1.184 1.132 1.104 
1.893 1.865 1.814 1.766 1.722 1.681 1.642 1.605 1.57 1.535 1.501 1.467 1.432 1.396 1.359 1.319 1.278 1.233 1.184 1.132 1.104 
1.893 1.865 1.814 1.766 1.722 1.681 1.642 1.605 1.57 1.535 1.501 1.467 1.432 1.396 1.359 1.319 1.278 1.233 1.184 1.132 1.104 
1.893 1.865 1.814 1.766 1.722 1.681 1.642 1.605 1.57 1.535 1.501 1.467 1.432 1.396 1.359 1.319 1.278 1.233 1.184 1.132 1.104 
1.893 1.865 1.814 1.766 1.722 1.681 1.642 1.605 1.57 1.535 1.501 1.467 1.432 1.396 1.359 1.319 1.278 1.233 1.184 1.132 1.104 
1.893 1.865 1.814 1.766 1.722 1.681 1.642 1.605 1.57 1.535 1.501 1.467 1.432 1.396 1.359 1.319 1.278 1.233 1.184 1.132 1.104 
1.893 1.865 1.814 1.766 1.722 1.681 1.642 1.605 1.57 1.535 1.501 1.467 1.432 1.396 1.359 1.319 1.278 1.233 1.184 1.132 1.104 
1.893 1.865 1.814 1.766 1.722 1.681 1.642 1.605 1.57 1.535 1.501 1.467 1.432 1.396 1.359 1.319 1.278 1.233 1.184 1.132 1.104 
1.893 1.865 1.814 1.766 1.722 1.681 1.642 1.605 1.57 1.535 1.501 1.467 1.432 1.396 1.359 1.319 1.278 1.233 1.184 1.132 1.104 
1.893 1.865 1.814 1.766 1.722 1.681 1.642 1.605 1.57 1.535 1.501 1.467 1.432 1.396 1.359 1.319 1.278 1.233 1.184 1.132 1.104 
1.893 1.865 1.814 1.766 1.722 1.681 1.642 1.605 1.57 1.535 1.501 1.467 1.432 1.396 1.359 1.319 1.278 1.233 1.184 1.132 1.104 
1.893 1.865 1.814 1.766 1.722 1.681 1.642 1.605 1.57 1.535 1.501 1.467 1.432 1.396 1.359 1.319 1.278 1.233 1.184 1.132 1.104 
1.893 1.865 1.814 1.766 1.722 1.681 1.642 1.605 1.57 1.535 1.501 1.467 1.432 1.396 1.359 1.319 1.278 1.233 1.184 1.132 1.104 
1.893 1.865 1.814 1.766 1.722 1.681 1.642 1.605 1.57 1.535 1.501 1.467 1.432 1.396 1.359 1.319 1.278 1.233 1.184 1.132 1.104 
1.893 1.865 1.814 1.766 1.722 1.681 1.642 1.605 1.57 1.535 1.501 1.467 1.432 1.396 1.359 1.319 1.278 1.233 1.184 1.132 1.104 
1.893 1.865 1.814 1.766 1.722 1.681 1.642 1.605 1.57 1.535 1.501 1.467 1.432 1.396 1.359 1.319 1.278 1.233 1.184 1.132 1.104 
1.893 1.865 1.814 1.766 1.722 1.681 1.642 1.605 1.57 1.535 1.501 1.467 1.432 1.396 1.359 1.319 1.278 1.233 1.184 1.132 1.104 
1.893 1.865 1.814 1.766 1.722 1.681 1.642 1.605 1.57 1.535 1.501 1.467 1.432 1.396 1.359 1.319 1.278 1.233 1.184 1.132 1.104 
1.893 1.865 1.814 1.766 1.722 1.681 1.642 1.605 1.57 1.535 1.501 1.467 1.432 1.396 1.359 1.319 1.278 1.233 1.184 1.132 1.104 
1.893 1.865 1.814 1.766 1.722 1.681 1.642 1.605 1.57 1.535 1.501 1.467 1.432 1.396 1.359 1.319 1.278 1.233 1.184 1.132 1.104 
1.893 1.865 1.814 1.766 1.722 1.681 1.642 1.605 1.57 1.535 1.501 1.467 1.432 1.396 1.359 1.319 1.278 1.233 1.184 1.132 1.104 
</DataArray>
<DataArray Name="ne" NumberOfComponents="1" format="ascii" type="Float64">
0.8856 0.8904 0.9023 0.9077 0.9158 0.9198 0.9252 0.9275 0.9307 0.9311 0.9322 0.9307 0.9301 0.9264 0.9242 0.9182 0.9145 0.906 0.901 0.8893 0.8844 
0.8856 0.8904 0.9023 0.9077 0.9158 0.9198 0.9252 0.9275 0.9307 0.9311 0.9322 0.9307 0.9301 0.9264 0.9242 0.9182 0.9145 0.906 0.901 0.8893 0.8844 
0.8856 0.8904 0.9023 0.9077 0.9158 0.9198 0.9252 0.9275 0.9307 0.9311 0.9322 0.9307 0.9301 0.9264 0.9242 0.9182 0.9145 0.906 0.901 0.8893 0.8844 
0.8856 0.8904 0.9023 0.9077 0.9158 0.9198 0.9252 0.9275 0.9307 0.9311 0.9322 0.9307 0.9301 0.9264 0.9242 0.9182 0.9145 0.906 0.901 0.8893 0.8844 
0.8856 0.8904 0.9023 0.9077 0.9158 0.9198 0.9252 0.9275 0.9307 0.9311 0.9322 0.9307 0.9301 0.9264 0.9242 0.9182 0.9145 0.906 0.901 0.8893 0.8844 
0.8856 0.8904 0.9023 0.9077 0.9158 0.9198 0.9252 0.9275 0.9307 0.9311 0.9322 0.9307 0.9301 0.9264 0.9242 0.9182 0.9145 0.906 0.901 0.8893 0.8844 
0.8856 0.8904 0.9023 0.9077 0.9158 0.9198 0.9252 0.9275 0.9307 0.9311 0.9322 0.9307 0.9301 0.9264 0.9242 0.9182 0.9145 0.906 0.901 0.8893 0.8844 
0.8856 0.8904 0.9023 0.9077 0.9158 0.9198 0.9252 0.9275 0.9307 0.9311 0.9322 0.9307 0.9301 0.9264 0.9242 0.9182 0.9145 0.906 0.901 0.8893 0.8844 
0.8856 0.8904 0.9023 0.9077 0.9158 0.9198 0.9252 0.9275 0.9307 0.9311 0.9322 0.9307 0.9301 0.9264 0.9242 0.9182 0.9145 0.906 0.901 0.8893 0.8844 
0.8856 0.8904 0.9023 0.9077 0.9158 0.9198 0.9252 0.9275 0.9307 0.9311 0.9322 0.9307 0.9301 0.9264 0.9242 0.9182 0.9145 0.906 0.901 0.8893 0.8844 
0.8856 0.8904 0.9023 0.9077 0.9158 0.9198 0.9252 0.9275 0.9307 0.9311 0.9322 0.9307 0.9301 0.9264 0.9242 0.9182 0.9145 0.906 0.901 0.8893 0.8844 
0.8856 0.8904 0.9023 0.9077 0.9158 0.9198 0.9252 0.9275 0.9307 0.9311 0.9322 0.9307 0.9301 0.9264 0.9242 0.9182 0.9145 0.906 0.901 0.8893 0.8844 
0.8856 0.8904 0.9023 0.9077 0.9158 0.9198 0.9252 0.9275 0.9307 0.9311 0.9322 0.9307 0.9301 0.9264 0.9242 0.9182 0.9145 0.906 0.901 0.8893 0.8844 
0.8856 0.8904 0.9023 0.9077 0.9158 0.9198 0.9252 0.9275 0.9307 0.9311 0.9322 0.9307 0.9301 0.9264 0.9242 0.9182 0.9145 0.906 0.901 0.8893 0.8844 
0.8856 0.8904 0.9023 0.9077 0.9158 0.9198 0.9252 0.9275 0.9307 0.9311 0.9322 0.9307 0.9301 0.9264 0.9242 0.9182 0.9145 0.906 0.901 0.8893 0.8844 
0.8856 0.8904 0.9023 0.9077 0.9158 0.9198 0.9252 0.9275 0.9307 0.9311 0.9322 0.9307 0.9301 0.9264 0.9242 0.9182 0.9145 0.906 0.901 0.8893 0.8844 
0.8856 0.8904 0.9023 0.9077 0.9158 0.9198 0.9252 0.9275 0.9307 0.9311 0.9322 0.9307 0.9301 0.9264 0.9242 0.9182 0.9145 0.906 0.901 0.8893 0.8844 
0.8856 0.8904 0.9023 0.9077 0.9158 0.9198 0.9252 0.9275 0.9307 0.9311 0.9322 0.9307 0.9301 0.9264 0.9242 0.9182 0.9145 0.906 0.901 0.8893 0.8844 
0.8856 0.8904 0.9023 0.9077 0.9158 0.9198 0.9252 0.9275 0.9307 0.9311 0.9322 0.9307 0.9301 0.9264 0.9242 0.9182 0.9145 0.906 0.901 0.8893 0.8844 
0.8856 0.8904 0.9023 0.9077 0.9158 0.9198 0.9252 0.9275 0.9307 0.9311 0.9322 0.9307 0.9301 0.9264 0.9242 0.9182 0.9145 0.906 0.901 0.8893 0.8844 
0.8856 0.8904 0.9023 0.9077 0.9158 0.9198 0.9252 0.9275 0.9307 0.9311 0.9322 0.9307 0.9301 0.9264 0.9242 0.9182 0.9145 0.906 0.901 0.8893 0.8844 
0.8856 0.8904 0.9023 0.9077 0.9158 0.9198 0.9252 0.9275 0.9307 0.9311 0.9322 0.9307 0.9301 0.9264 0.9242 0.9182 0.9145 0.906 0.901 0.8893 0.8844 
0.8856 0.8904 0.9023 0.9077 0.9158 0.9198 0.9252 0.9275 0.9307 0.9311 0.9322 0.9307 0.9301 0.9264 0.9242 0.9182 0.9145 0.906 0.901 0.8893 0.8844 
0.8856 0.8904 0.9023 0.9077 0.9158 0.9198 0.9252 0.9275 0.9307 0.9311 0.9322 0.9307 0.9301 0.9264 0.9242 0.9182 0.9145 0.906 0.901 0.8893 0.8844 
0.8856 0.8904 0.9023 0.9077 0.9158 0.9198 0.9252 0.9275 0.9307 0.9311 0.9322 0.9307 0.9301 0.9264 0.9242 0.9182 0.9145 0.906 0.901 0.8893 0.8844 
0.8856 0.8904 0.9023 0.9077 0.9158 0.9198 0.9252 0.9275 0.9307 0.9311 0.9322 0.9307 0.9301 0.9264 0.9242 0.9182 0.9145 0.906 0.901 0.8893 0.8844 
0.8856 0.8904 0.9023 0.9077 0.9158 0.9198 0.9252 0.9275 0.9307 0.9311 0.9322 0.9307 0.9301 0.9264 0.9242 0.9182 0.9145 0.906 0.901 0.8893 0.8844 
0.8856 0.8904 0.9023 0.9077 0.9158 0.9198 0.9252 0.9275 0.9307 0.9311 0.9322 0.9307 0.9301 0.9264 0.9242 0.9182 0.9145 0.906 0.901 0.8893 0.8844 
0.8856 0.8904 0.9023 0.9077 0.9158 0.9198 0.9252 0.9275 0.9307 0.9311 0.9322 0.9307 0.9301 0.9264 0.9242 0.9182 0.9145 0.906 0.901 0.8893 0.8844 
0.8856 0.8904 0.9023 0.9077 0.9158 0.9198 0.9252 0.9275 0.9307 0.9311 0.9322 0.9307 0.9301 0.9264 0.9242 0.9182 0.9145 0.906 0.901 0.8893 0.8844 
0.8856 0.8904 0.9023 0.9077 0.9158 0.9198 0.9252 0.9275 0.9307 0.9311 0.9322 0.9307 0.9301 0.9264 0.9242 0.9182 0.9145 0.906 0.901 0.8893 0.8844 
0.8856 0.8904 0.9023 0.9077 0.9158 0.9198 0.9252 0.9275 0.9307 0.9311 0.9322 0.9307 0.9301 0.9264 0.9242 0.9182 0.9145 0.906 0.901 0.8893 0.8844 
0.8856 0.8904 0.9023 0.9077 0.9158 0.9198 0.9252 0.9275 0.9307 0.9311 0.9322 0.9307 0.9301 0.9264 0.9242 0.9182 0.9145 0.906 0.901 0.8893 0.8844 
0.8856 0.8904 0.9023 0.9077 0.9158 0.9198 0.9252 0.9275 0.9307 0.9311 0.9322 0.9307 0.9301 0.9264 0.9242 0.9182 0.9145 0.906 0.901 0.8893 0.8844 
0.8856 0.8904 0.9023 0.9077 0.9158 0.9198 0.9252 0.9275 0.9307 0.9311 0.9322 0.9307 0.9301 0.9264 0.9242 0.9182 0.9145 0.906 0.901 0.8893 0.8844 
0.8856 0.8904 0.9023 0.9077 0.9158 0.9198 0.9252 0.9275 0.9307 0.9311 0.9322 0.9307 0.9301 0.9264 0.9242 0.9182 0.9145 0.906 0.901 0.8893 0.8844 
0.8856 0.8904 0.9023 0.9077 0.9158 0.9198 0.9252 0.9275 0.9307 0.9311 0.9322 0.9307 0.9301 0.9264 0.9242 0.9182 0.9145 0.906 0.901 0.8893 0.8844 
0.8856 0.8904 0.9023 0.9077 0.9158 0.9198 0.9252 0.9275 0.9307 0.9311 0.9322 0.9307 0.9301 0.9264 0.9242 0.9182 0.9145 0.906 0.901 0.8893 0.8844 
0.8856 0.8904 0.9023 0.9077 0.9158 0.9198 0.9252 0.9275 0.9307 0.9311 0.9322 0.9307 0.9301 0.9264 0.9242 0.9182 0.9145 0.906 0.901 0.8893 0.8844 
0.8856 0.8904 0.9023 0.9077 0.9158 0.9198 0.9252 0.9275 0.9307 0.9311 0.9322 0.9307 0.9301 0.9264 0.9242 0.9182 0.9145 0.906 0.901 0.8893 0.8844 
0.8856 0.8904 0.9023 0.9077 0.9158 0.9198 0.9252 0.9275 0.9307 0.9311 0.9322 0.9307 0.9301 0.9264 0.9242 0.9182 0.9145 0.906 0.901 0.8893 0.8844 
</DataArray>
</PointData>
</Piece>
</ImageData>
</VTKFile>
