<VTKFile type="ImageData">
<ImageData Origin="0 -10 0" Spacing="0.5 0.5 1" WholeExtent="0 20 0 40 0 0">
<Piece Extent="0 20 0 40 0 0">
<PointData>
<DataArray Name="f" NumberOfComponents="1" format="ascii" type="Float64">
7.416e-07 1.025e-08 1.264e-10 7.682e-13 2.711e-17 0 0 0 0 0 0 0 0 0 0 0 0 0 0 0 0 
2.649e-05 9.273e-07 3.266e-08 4.406e-10 4.774e-13 3.385e-15 6.814e-18 0 0 0 0 0 0 0 0 0 0 0 0 0 0 
0.0004291 3.604e-05 2.666e-06 7.344e-08 6.536e-10 1.591e-11 2.178e-13 1.316e-15 1.813e-18 0 0 0 0 0 0 0 0 0 0 0 0 
0.004027 0.0006913 8.661e-05 4.87e-06 1.8e-07 9.838e-09 3.673e-10 8.658e-12 1.125e-13 6.097e-16 5.806e-19 0 0 0 0 0 0 0 0 0 0 
0.01971 0.005601 0.001141 0.0001376 1.427e-05 1.459e-06 1.117e-07 6.182e-09 2.351e-10 5.669e-12 7.52e-14 4.024e-16 2.847e-19 0 0 0 0 0 0 0 0 
0.05647 0.02496 0.008174 0.001868 0.0003437 5.433e-05 6.849e-06 6.541e-07 4.578e-08 2.239e-09 7.094e-11 1.278e-12 9.84e-15 1.133e-17 0 0 0 0 0 0 0 
0.09928 0.06273 0.03032 0.01086 0.003048 0.0006981 0.000127 1.767e-05 1.824e-06 1.331e-07 6.379e-09 1.758e-10 2.098e-12 4.05e-15 0 0 0 0 0 0 0 
0.1154 0.09938 0.06747 0.03507 0.01413 0.004517 0.001139 0.0002207 3.192e-05 3.29e-06 2.25e-07 8.98e-09 1.598e-10 5.216e-13 9.385e-19 0 0 0 0 0 0 
0.09249 0.105 0.09687 0.07014 0.03929 0.01722 0.005916 0.001568 0.0003114 4.443e-05 4.248e-06 2.415e-07 6.349e-09 3.524e-11 7.018e-16 1.429e-19 0 0 0 0 0 
0.05246 0.07655 0.09361 0.09203 0.07044 0.04196 0.01953 0.007024 0.001902 0.0003726 4.949e-05 3.985e-06 1.547e-07 1.465e-09 1.911e-13 1.509e-16 1.675e-19 0 0 0 0 
0.02125 0.0392 0.06243 0.08193 0.08492 0.06857 0.04318 0.02104 0.007754 0.002083 0.0003842 4.387e-05 2.521e-06 4.081e-08 2.495e-11 5.932e-14 1.609e-16 3.088e-19 0 0 0 
0.006079 0.01415 0.0291 0.05043 0.07048 0.0772 0.06587 0.04354 0.02187 0.008078 0.002076 0.000338 2.895e-05 8.026e-07 1.825e-09 1.097e-11 6.293e-14 2.333e-16 3.958e-19 0 0 
0.001179 0.003538 0.009453 0.02159 0.04074 0.0607 0.07033 0.06322 0.04346 0.02218 0.007997 0.001871 0.0002412 1.151e-05 8.225e-08 1.096e-09 1.2e-11 7.938e-14 2.363e-16 1.987e-19 0 
0.0001443 0.0005853 0.002093 0.006384 0.01642 0.03345 0.05273 0.06461 0.06102 0.04332 0.02211 0.007517 0.001478 0.0001223 2.414e-06 6.436e-08 1.248e-09 1.392e-11 6.918e-14 9.723e-17 0 
1.004e-05 5.919e-05 0.0003007 0.00127 0.004568 0.01286 0.0276 0.04609 0.05998 0.05962 0.04351 0.0218 0.006649 0.0009647 4.729e-05 2.329e-06 7.586e-08 1.374e-09 1.102e-11 2.516e-14 0 
3.4e-07 3.236e-06 2.572e-05 0.0001609 0.0008544 0.003393 0.009929 0.02252 0.04033 0.05636 0.05942 0.04457 0.0215 0.005542 0.0006152 5.284e-05 2.798e-06 8.054e-08 1.026e-09 3.747e-12 0 
4.337e-09 7.781e-08 1.139e-06 1.176e-05 0.0001021 0.0005966 0.002394 0.007312 0.01787 0.03502 0.05366 0.06114 0.04762 0.02204 0.005122 0.0007435 6.337e-05 2.89e-06 5.833e-08 3.411e-10 0 
1.185e-11 5.321e-10 2.033e-08 4.118e-07 7.101e-06 6.585e-05 0.0003709 0.001514 0.004948 0.01336 0.02955 0.05147 0.06579 0.05497 0.02524 0.00622 0.0008675 6.384e-05 2.078e-06 1.98e-08 0 
3.021e-16 1.352e-13 8.349e-11 4.511e-09 2.424e-07 4.04e-06 3.398e-05 0.0001886 0.0008068 0.002875 0.008795 0.02283 0.04764 0.07173 0.06405 0.02842 0.006846 0.0008517 4.664e-05 7.543e-07 0 
0 7.398e-19 2.702e-16 3.686e-13 2.797e-09 1.036e-07 1.521e-06 1.267e-05 7.359e-05 0.0003341 0.001283 0.00439 0.01357 0.03569 0.06621 0.06193 0.02866 0.006534 0.0006468 1.918e-05 0 
0 0 1.891e-20 1.421e-17 6.58e-14 3.202e-10 1.989e-08 3.599e-07 3.482e-06 2.261e-05 0.0001111 0.0004474 0.001568 0.005035 0.01978 0.05538 0.05823 0.02694 0.005241 0.0003259 1.451e-05 
0 0 0 2.554e-20 4.741e-16 7.389e-12 6.923e-10 1.729e-08 2.216e-07 1.852e-06 1.14e-05 5.586e-05 0.0002302 0.0008362 0.003826 0.02205 0.04989 0.04877 0.02262 0.005259 0.0009475 
0 0 0 0 2.239e-18 1.195e-13 1.643e-11 5.575e-10 9.395e-09 1.009e-07 7.842e-07 4.752e-06 2.366e-05 0.0001009 0.0005787 0.005297 0.02293 0.04336 0.04007 0.01986 0.006975 
0 0 0 0 0 1.304e-15 2.552e-13 1.158e-11 2.54e-10 3.494e-09 3.428e-08 2.588e-07 1.583e-06 8.135e-06 6.554e-05 0.0008996 0.00658 0.02218 0.0371 0.03389 0.02068 
0 0 0 0 0 9.138e-18 2.468e-15 1.471e-13 4.159e-12 7.281e-11 8.999e-10 8.485e-09 6.417e-08 4.035e-07 5.258e-06 0.0001157 0.001294 0.007207 0.02045 0.03204 0.03196 
0 0 0 0 0 3.849e-20 1.394e-17 1.075e-15 3.878e-14 8.585e-13 1.333e-11 1.568e-10 1.471e-09 1.139e-08 2.883e-07 1.143e-05 0.0001853 0.001583 0.007211 0.01844 0.02881 
0 0 0 0 0 0 4.245e-20 4.184e-18 1.911e-16 5.323e-15 1.035e-13 1.518e-12 1.768e-11 1.693e-10 1.056e-08 8.542e-07 1.996e-05 0.0002455 0.001701 0.006805 0.01606 
0 0 0 0 0 0 0 0 4.527e-19 1.583e-17 3.851e-16 7.047e-15 1.021e-13 1.212e-12 2.529e-10 4.733e-08 1.63e-06 2.763e-05 0.0002759 0.001657 0.005718 
0 0 0 0 0 0 0 0 0 2.005e-20 6.118e-19 1.401e-17 2.536e-16 3.753e-15 3.857e-12 1.895e-09 9.941e-08 2.287e-06 3.138e-05 0.000271 0.001322 
0 0 0 0 0 0 0 0 0 0 0 1.024e-20 2.333e-19 4.342e-18 3.59e-14 5.308e-11 4.395e-09 1.382e-07 2.521e-06 2.998e-05 0.0002 
0 0 0 0 0 0 0 0 0 0 0 0 0 0 1.915e-16 9.969e-13 1.353e-10 5.928e-09 1.42e-07 2.24e-06 1.98e-05 
0 0 0 0 0 0 0 0 0 0 0 0 0 0 5.336e-19 1.182e-14 2.745e-12 1.718e-10 5.443e-09 1.114e-07 1.272e-06 
0 0 0 0 0 0 0 0 0 0 0 0 0 0 0 8.138e-17 3.41e-14 3.129e-12 1.335e-10 3.533e-09 5.163e-08 
0 0 0 0 0 0 0 0 0 0 0 0 0 0 0 2.86e-19 2.319e-16 3.209e-14 1.889e-12 6.573e-11 1.241e-09 
0 0 0 0 0 0 0 0 0 0 0 0 0 0 0 0 7.14e-19 1.539e-16 1.291e-14 6.092e-13 1.54e-11 
0 0 0 0 0 0 0 0 0 0 0 0 0 0 0 0 0 2.307e-19 2.912e-17 1.981e-15 7.257e-14 
0 0 0 0 0 0 0 0 0 0 0 0 0 0 0 0 0 0 0 4.498e-19 4.19e-17 
0 0 0 0 0 0 0 0 0 0 0 0 0 0 0 0 0 0 0 0 0 
0 0 0 0 0 0 0 0 0 0 0 0 0 0 0 0 0 0 0 0 0 
0 0 0 0 0 0 0 0 0 0 0 0 0 0 0 0 0 0 0 0 0 
0 0 0 0 0 0 0 0 0 0 0 0 0 0 0 0 0 0 0 0 0 
</DataArray>
<DataArray Name="E" NumberOfComponents="1" format="ascii" type="Float64">
5.473 5.284 4.9 4.508 4.107 3.699 3.285 2.864 2.437 2.006 1.57 1.13 0.6863 0.24 -0.2093 -0.661 -1.114 -1.57 -2.032 -2.498 -2.733 
5.473 5.284 4.9 4.508 4.107 3.699 3.285 2.864 2.437 2.006 1.57 1.13 0.6863 0.24 -0.2093 -0.661 -1.114 -1.57 -2.032 -2.498 -2.733 
5.473 5.284 4.9 4.508 4.107 3.699 3.285 2.864 2.437 2.006 1.57 1.13 0.6863 0.24 -0.2093 -0.661 -1.114 -1.57 -2.032 -2.498 -2.733 
5.473 5.284 4.9 4.508 4.107 3.699 3.285 2.864 2.437 2.006 1.57 1.13 0.6863 0.24 -0.2093 -0.661 -1.114 -1.57 -2.032 -2.498 -2.733 
5.473 5.284 4.9 4.508 4.107 3.699 3.285 2.864 2.437 2.006 1.57 1.13 0.6863 0.24 -0.2093 -0.661 -1.114 -1.57 -2.032 -2.498 -2.733 
5.473 5.284 4.9 4.508 4.107 3.699 3.285 2.864 2.437 2.006 1.57 1.13 0.6863 0.24 -0.2093 -0.661 -1.114 -1.57 -2.032 -2.498 -2.733 
5.473 5.284 4.9 4.508 4.107 3.699 3.285 2.864 2.437 2.006 1.57 1.13 0.6863 0.24 -0.2093 -0.661 -1.114 -1.57 -2.032 -2.498 -2.733 
5.473 5.284 4.9 4.508 4.107 3.699 3.285 2.864 2.437 2.006 1.57 1.13 0.6863 0.24 -0.2093 -0.661 -1.114 -1.57 -2.032 -2.498 -2.733 
5.473 5.284 4.9 4.508 4.107 3.699 3.285 2.864 2.437 2.006 1.57 1.13 0.6863 0.24 -0.2093 -0.661 -1.114 -1.57 -2.032 -2.498 -2.733 
5.473 5.284 4.9 4.508 4.107 3.699 3.285 2.864 2.437 2.006 1.57 1.13 0.6863 0.24 -0.2093 -0.661 -1.114 -1.57 -2.032 -2.498 -2.733 
5.473 5.284 4.9 4.508 4.107 3.699 3.285 2.864 2.437 2.006 1.57 1.13 0.6863 0.24 -0.2093 -0.661 -1.114 -1.57 -2.032 -2.498 -2.733 
5.473 5.284 4.9 4.508 4.107 3.699 3.285 2.864 2.437 2.006 1.57 1.13 0.6863 0.24 -0.2093 -0.661 -1.114 -1.57 -2.032 -2.498 -2.733 
5.473 5.284 4.9 4.508 4.107 3.699 3.285 2.864 2.437 2.006 1.57 1.13 0.6863 0.24 -0.2093 -0.661 -1.114 -1.57 -2.032 -2.498 -2.733 
5.473 5.284 4.9 4.508 4.107 3.699 3.285 2.864 2.437 2.006 1.57 1.13 0.6863 0.24 -0.2093 -0.661 -1.114 -1.57 -2.032 -2.498 -2.733 
5.473 5.284 4.9 4.508 4.107 3.699 3.285 2.864 2.437 2.006 1.57 1.13 0.6863 0.24 -0.2093 -0.661 -1.114 -1.57 -2.032 -2.498 -2.733 
5.473 5.284 4.9 4.508 4.107 3.699 3.285 2.864 2.437 2.006 1.57 1.13 0.6863 0.24 -0.2093 -0.661 -1.114 -1.57 -2.032 -2.498 -2.733 
5.473 5.284 4.9 4.508 4.107 3.699 3.285 2.864 2.437 2.006 1.57 1.13 0.6863 0.24 -0.2093 -0.661 -1.114 -1.57 -2.032 -2.498 -2.733 
5.473 5.284 4.9 4.508 4.107 3.699 3.285 2.864 2.437 2.006 1.57 1.13 0.6863 0.24 -0.2093 -0.661 -1.114 -1.57 -2.032 -2.498 -2.733 
5.473 5.284 4.9 4.508 4.107 3.699 3.285 2.864 2.437 2.006 1.57 1.13 0.6863 0.24 -0.2093 -0.661 -1.114 -1.57 -2.032 -2.498 -2.733 
5.473 5.284 4.9 4.508 4.107 3.699 3.285 2.864 2.437 2.006 1.57 1.13 0.6863 0.24 -0.2093 -0.661 -1.114 -1.57 -2.032 -2.498 -2.733 
5.473 5.284 4.9 4.508 4.107 3.699 3.285 2.864 2.437 2.006 1.57 1.13 0.6863 0.24 -0.2093 -0.661 -1.114 -1.57 -2.032 -2.498 -2.733 
5.473 5.284 4.9 4.508 4.107 3.699 3.285 2.864 2.437 2.006 1.57 1.13 0.6863 0.24 -0.2093 -0.661 -1.114 -1.57 -2.032 -2.498 -2.733 
5.473 5.284 4.9 4.508 4.107 3.699 3.285 2.864 2.437 2.006 1.57 1.13 0.6863 0.24 -0.2093 -0.661 -1.114 -1.57 -2.032 -2.498 -2.733 
5.473 5.284 4.9 4.508 4.107 3.699 3.285 2.864 2.437 2.006 1.57 1.13 0.6863 0.24 -0.2093 -0.661 -1.114 -1.57 -2.032 -2.498 -2.733 
5.473 5.284 4.9 4.508 4.107 3.699 3.285 2.864 2.437 2.006 1.57 1.13 0.6863 0.24 -0.2093 -0.661 -1.114 -1.57 -2.032 -2.498 -2.733 
5.473 5.284 4.9 4.508 4.107 3.699 3.285 2.864 2.437 2.006 1.57 1.13 0.6863 0.24 -0.2093 -0.661 -1.114 -1.57 -2.032 -2.498 -2.733 
5.473 5.284 4.9 4.508 4.107 3.699 3.285 2.864 2.437 2.006 1.57 1.13 0.6863 0.24 -0.2093 -0.661 -1.114 -1.57 -2.032 -2.498 -2.733 
5.473 5.284 4.9 4.508 4.107 3.699 3.285 2.864 2.437 2.006 1.57 1.13 0.6863 0.24 -0.2093 -0.661 -1.114 -1.57 -2.032 -2.498 -2.733 
5.473 5.284 4.9 4.508 4.107 3.699 3.285 2.864 2.437 2.006 1.57 1.13 0.6863 0.24 -0.2093 -0.661 -1.114 -1.57 -2.032 -2.498 -2.733 
5.473 5.284 4.9 4.508 4.107 3.699 3.285 2.864 2.437 2.006 1.57 1.13 0.6863 0.24 -0.2093 -0.661 -1.114 -1.57 -2.032 -2.498 -2.733 
5.473 5.284 4.9 4.508 4.107 3.699 3.285 2.864 2.437 2.006 1.57 1.13 0.6863 0.24 -0.2093 -0.661 -1.114 -1.57 -2.032 -2.498 -2.733 
5.473 5.284 4.9 4.508 4.107 3.699 3.285 2.864 2.437 2.006 1.57 1.13 0.6863 0.24 -0.2093 -0.661 -1.114 -1.57 -2.032 -2.498 -2.733 
5.473 5.284 4.9 4.508 4.107 3.699 3.285 2.864 2.437 2.006 1.57 1.13 0.6863 0.24 -0.2093 -0.661 -1.114 -1.57 -2.032 -2.498 -2.733 
5.473 5.284 4.9 4.508 4.107 3.699 3.285 2.864 2.437 2.006 1.57 1.13 0.6863 0.24 -0.2093 -0.661 -1.114 -1.57 -2.032 -2.498 -2.733 
5.473 5.284 4.9 4.508 4.107 3.699 3.285 2.864 2.437 2.006 1.57 1.13 0.6863 0.24 -0.2093 -0.661 -1.114 -1.57 -2.032 -2.498 -2.733 
5.473 5.284 4.9 4.508 4.107 3.699 3.285 2.864 2.437 2.006 1.57 1.13 0.6863 0.24 -0.2093 -0.661 -1.114 -1.57 -2.032 -2.498 -2.733 
5.473 5.284 4.9 4.508 4.107 3.699 3.285 2.864 2.437 2.006 1.57 1.13 0.6863 0.24 -0.2093 -0.661 -1.114 -1.57 -2.032 -2.498 -2.733 
5.473 5.284 4.9 4.508 4.107 3.699 3.285 2.864 2.437 2.006 1.57 1.13 0.6863 0.24 -0.2093 -0.661 -1.114 -1.57 -2.032 -2.498 -2.733 
5.473 5.284 4.9 4.508 4.107 3.699 3.285 2.864 2.437 2.006 1.57 1.13 0.6863 0.24 -0.2093 -0.661 -1.114 -1.57 -2.032 -2.498 -2.733 
5.473 5.284 4.9 4.508 4.107 3.699 3.285 2.864 2.437 2.006 1.57 1.13 0.6863 0.24 -0.2093 -0.661 -1.114 -1.57 -2.032 -2.498 -2.733 
5.473 5.284 4.9 4.508 4.107 3.699 3.285 2.864 2.437 2.006 1.57 1.13 0.6863 0.24 -0.2093 -0.661 -1.114 -1.57 -2.032 -2.498 -2.733 
</DataArray>
<DataArray Name="ne" NumberOfComponents="1" format="ascii" type="Float64">
0.2619 0.2419 0.2235 0.2067 0.1913 0.1773 0.1644 0.1526 0.1419 0.1322 0.1235 0.1161 0.11 0.1047 0.09821 0.09487 0.09201 0.08329 0.07132 0.06194 0.05888 
0.2619 0.2419 0.2235 0.2067 0.1913 0.1773 0.1644 0.1526 0.1419 0.1322 0.1235 0.1161 0.11 0.1047 0.09821 0.09487 0.09201 0.08329 0.07132 0.06194 0.05888 
0.2619 0.2419 0.2235 0.2067 0.1913 0.1773 0.1644 0.1526 0.1419 0.1322 0.1235 0.1161 0.11 0.1047 0.09821 0.09487 0.09201 0.08329 0.07132 0.06194 0.05888 
0.2619 0.2419 0.2235 0.2067 0.1913 0.1773 0.1644 0.1526 0.1419 0.1322 0.1235 0.1161 0.11 0.1047 0.09821 0.09487 0.09201 0.08329 0.07132 0.06194 0.05888 
0.2619 0.2419 0.2235 0.2067 0.1913 0.1773 0.1644 0.1526 0.1419 0.1322 0.1235 0.1161 0.11 0.1047 0.09821 0.09487 0.09201 0.08329 0.07132 0.06194 0.05888 
0.2619 0.2419 0.2235 0.2067 0.1913 0.1773 0.1644 0.1526 0.1419 0.1322 0.1235 0.1161 0.11 0.1047 0.09821 0.09487 0.09201 0.08329 0.07132 0.06194 0.05888 
0.2619 0.2419 0.2235 0.2067 0.1913 0.1773 0.1644 0.1526 0.1419 0.1322 0.1235 0.1161 0.11 0.1047 0.09821 0.09487 0.09201 0.08329 0.07132 0.06194 0.05888 
0.2619 0.2419 0.2235 0.2067 0.1913 0.1773 0.1644 0.1526 0.1419 0.1322 0.1235 0.1161 0.11 0.1047 0.09821 0.09487 0.09201 0.08329 0.07132 0.06194 0.05888 
0.2619 0.2419 0.2235 0.2067 0.1913 0.1773 0.1644 0.1526 0.1419 0.1322 0.1235 0.1161 0.11 0.1047 0.09821 0.09487 0.09201 0.08329 0.07132 0.06194 0.05888 
0.2619 0.2419 0.2235 0.2067 0.1913 0.1773 0.1644 0.1526 0.1419 0.1322 0.1235 0.1161 0.11 0.1047 0.09821 0.09487 0.09201 0.08329 0.07132 0.06194 0.05888 
0.2619 0.2419 0.2235 0.2067 0.1913 0.1773 0.1644 0.1526 0.1419 0.1322 0.1235 0.1161 0.11 0.1047 0.09821 0.09487 0.09201 0.08329 0.07132 0.06194 0.05888 
0.2619 0.2419 0.2235 0.2067 0.1913 0.1773 0.1644 0.1526 0.1419 0.1322 0.1235 0.1161 0.11 0.1047 0.09821 0.09487 0.09201 0.08329 0.07132 0.06194 0.05888 
0.2619 0.2419 0.2235 0.2067 0.1913 0.1773 0.1644 0.1526 0.1419 0.1322 0.1235 0.1161 0.11 0.1047 0.09821 0.09487 0.09201 0.08329 0.07132 0.06194 0.05888 
0.2619 0.2419 0.2235 0.2067 0.1913 0.1773 0.1644 0.1526 0.1419 0.1322 0.1235 0.1161 0.11 0.1047 0.09821 0.09487 0.09201 0.08329 0.07132 0.06194 0.05888 
0.2619 0.2419 0.2235 0.2067 0.1913 0.1773 0.1644 0.1526 0.1419 0.1322 0.1235 0.1161 0.11 0.1047 0.09821 0.09487 0.09201 0.08329 0.07132 0.06194 0.05888 
0.2619 0.2419 0.2235 0.2067 0.1913 0.1773 0.1644 0.1526 0.1419 0.1322 0.1235 0.1161 0.11 0.1047 0.09821 0.09487 0.09201 0.08329 0.07132 0.06194 0.05888 
0.2619 0.2419 0.2235 0.2067 0.1913 0.1773 0.1644 0.1526 0.1419 0.1322 0.1235 0.1161 0.11 0.1047 0.09821 0.09487 0.09201 0.08329 0.07132 0.06194 0.05888 
0.2619 0.2419 0.2235 0.2067 0.1913 0.1773 0.1644 0.1526 0.1419 0.1322 0.1235 0.1161 0.11 0.1047 0.09821 0.09487 0.09201 0.08329 0.07132 0.06194 0.05888 
0.2619 0.2419 0.2235 0.2067 0.1913 0.1773 0.1644 0.1526 0.1419 0.1322 0.1235 0.1161 0.11 0.1047 0.09821 0.09487 0.09201 0.08329 0.07132 0.06194 0.05888 
0.2619 0.2419 0.2235 0.2067 0.1913 0.1773 0.1644 0.1526 0.1419 0.1322 0.1235 0.1161 0.11 0.1047 0.09821 0.09487 0.09201 0.08329 0.07132 0.06194 0.05888 
0.2619 0.2419 0.2235 0.2067 0.1913 0.1773 0.1644 0.1526 0.1419 0.1322 0.1235 0.1161 0.11 0.1047 0.09821 0.09487 0.09201 0.08329 0.07132 0.06194 0.05888 
0.2619 0.2419 0.2235 0.2067 0.1913 0.1773 0.1644 0.1526 0.1419 0.1322 0.1235 0.1161 0.11 0.1047 0.09821 0.09487 0.09201 0.08329 0.07132 0.06194 0.05888 
0.2619 0.2419 0.2235 0.2067 0.1913 0.1773 0.1644 0.1526 0.1419 0.1322 0.1235 0.1161 0.11 0.1047 0.09821 0.09487 0.09201 0.08329 0.07132 0.06194 0.05888 
0.2619 0.2419 0.2235 0.2067 0.1913 0.1773 0.1644 0.1526 0.1419 0.1322 0.1235 0.1161 0.11 0.1047 0.09821 0.09487 0.09201 0.08329 0.07132 0.06194 0.05888 
0.2619 0.2419 0.2235 0.2067 0.1913 0.1773 0.1644 0.1526 0.1419 0.1322 0.1235 0.1161 0.11 0.1047 0.09821 0.09487 0.09201 0.08329 0.07132 0.06194 0.05888 
0.2619 0.2419 0.2235 0.2067 0.1913 0.1773 0.1644 0.1526 0.1419 0.1322 0.1235 0.1161 0.11 0.1047 0.09821 0.09487 0.09201 0.08329 0.07132 0.06194 0.05888 
0.2619 0.2419 0.2235 0.2067 0.1913 0.1773 0.1644 0.1526 0.1419 0.1322 0.1235 0.1161 0.11 0.1047 0.09821 0.09487 0.09201 0.08329 0.07132 0.06194 0.05888 
0.2619 0.2419 0.2235 0.2067 0.1913 0.1773 0.1644 0.1526 0.1419 0.1322 0.1235 0.1161 0.11 0.1047 0.09821 0.09487 0.09201 0.08329 0.07132 0.06194 0.05888 
0.2619 0.2419 0.2235 0.2067 0.1913 0.1773 0.1644 0.1526 0.1419 0.1322 0.1235 0.1161 0.11 0.1047 0.09821 0.09487 0.09201 0.08329 0.07132 0.06194 0.05888 
0.2619 0.2419 0.2235 0.2067 0.1913 0.1773 0.1644 0.1526 0.1419 0.1322 0.1235 0.1161 0.11 0.1047 0.09821 0.09487 0.09201 0.08329 0.07132 0.06194 0.05888 
0.2619 0.2419 0.2235 0.2067 0.1913 0.1773 0.1644 0.1526 0.1419 0.1322 0.1235 0.1161 0.11 0.1047 0.09821 0.09487 0.09201 0.08329 0.07132 0.06194 0.05888 
0.2619 0.2419 0.2235 0.2067 0.1913 0.1773 0.1644 0.1526 0.1419 0.1322 0.1235 0.1161 0.11 0.1047 0.09821 0.09487 0.09201 0.08329 0.07132 0.06194 0.05888 
0.2619 0.2419 0.2235 0.2067 0.1913 0.1773 0.1644 0.1526 0.1419 0.1322 0.1235 0.1161 0.11 0.1047 0.09821 0.09487 0.09201 0.08329 0.07132 0.06194 0.05888 
0.2619 0.2419 0.2235 0.2067 0.1913 0.1773 0.1644 0.1526 0.1419 0.1322 0.1235 0.1161 0.11 0.1047 0.09821 0.09487 0.09201 0.08329 0.07132 0.06194 0.05888 
0.2619 0.2419 0.2235 0.2067 0.1913 0.1773 0.1644 0.1526 0.1419 0.1322 0.1235 0.1161 0.11 0.1047 0.09821 0.09487 0.09201 0.08329 0.07132 0.06194 0.05888 
0.2619 0.2419 0.2235 0.2067 0.1913 0.1773 0.1644 0.1526 0.1419 0.1322 0.1235 0.1161 0.11 0.1047 0.09821 0.09487 0.09201 0.08329 0.07132 0.06194 0.05888 
0.2619 0.2419 0.2235 0.2067 0.1913 0.1773 0.1644 0.1526 0.1419 0.1322 0.1235 0.1161 0.11 0.1047 0.09821 0.09487 0.09201 0.08329 0.07132 0.06194 0.05888 
0.2619 0.2419 0.2235 0.2067 0.1913 0.1773 0.1644 0.1526 0.1419 0.1322 0.1235 0.1161 0.11 0.1047 0.09821 0.09487 0.09201 0.08329 0.07132 0.06194 0.05888 
0.2619 0.2419 0.2235 0.2067 0.1913 0.1773 0.1644 0.1526 0.1419 0.1322 0.1235 0.1161 0.11 0.1047 0.09821 0.09487 0.09201 0.08329 0.07132 0.06194 0.05888 
0.2619 0.2419 0.2235 0.2067 0.1913 0.1773 0.1644 0.1526 0.1419 0.1322 0.1235 0.1161 0.11 0.1047 0.09821 0.09487 0.09201 0.08329 0.07132 0.06194 0.05888 
0.2619 0.2419 0.2235 0.2067 0.1913 0.1773 0.1644 0.1526 0.1419 0.1322 0.1235 0.1161 0.11 0.1047 0.09821 0.09487 0.09201 0.08329 0.07132 0.06194 0.05888 
</DataArray>
</PointData>
</Piece>
</ImageData>
</VTKFile>
