<VTKFile type="ImageData">
<ImageData Origin="0 -10 0" Spacing="0.5 0.5 1" WholeExtent="0 20 0 40 0 0">
<Piece Extent="0 20 0 40 0 0">
<PointData>
<DataArray Name="f" NumberOfComponents="1" format="ascii" type="Float64">
6.336e-07 1.305e-08 3.764e-10 1.512e-13 1.054e-15 1.878e-18 0 0 0 0 0 0 0 0 0 0 0 0 0 0 0 
2.187e-05 1.203e-06 6.276e-08 2.122e-10 4.959e-12 6.242e-14 3.182e-16 2.584e-19 0 0 0 0 0 0 0 0 0 0 0 0 0 
0.0003828 4.413e-05 3.904e-06 6.486e-08 3.36e-09 1.155e-10 2.397e-12 2.546e-14 9.498e-17 2.096e-20 0 0 0 0 0 0 0 0 0 0 0 
0.003757 0.0007586 0.0001089 6.017e-06 5.762e-07 4.042e-08 1.989e-09 6.441e-11 1.237e-12 1.159e-14 3.234e-17 0 0 0 0 0 0 0 0 0 0 
0.01994 0.006244 0.001437 0.0002036 3.249e-05 4.028e-06 3.79e-07 2.625e-08 1.28e-09 4.118e-11 7.825e-13 7.05e-15 1.618e-17 0 0 0 0 0 0 0 0 
0.0627 0.02882 0.01024 0.002662 0.0006165 0.0001176 1.761e-05 2.026e-06 1.739e-07 1.069e-08 4.417e-10 1.109e-11 1.386e-13 4.878e-16 0 0 0 0 0 0 0 
0.1229 0.0768 0.03854 0.01505 0.004901 0.001307 0.0002771 4.571e-05 5.702e-06 5.167e-07 3.199e-08 1.222e-09 2.357e-11 1.319e-13 1.156e-18 0 0 0 0 0 0 
0.1628 0.1315 0.0884 0.04794 0.02121 0.007637 0.002201 0.0004973 8.573e-05 1.084e-05 9.473e-07 5.183e-08 1.466e-09 1.284e-11 8.33e-16 3.77e-20 0 0 0 0 0 
0.1539 0.1541 0.1335 0.0962 0.05649 0.02696 0.01036 0.003145 0.0007337 0.0001267 1.528e-05 1.174e-06 4.792e-08 6.562e-10 1.967e-13 5.133e-17 2.512e-20 0 0 0 0 
0.1083 0.1297 0.1399 0.1296 0.09921 0.06209 0.03152 0.01272 0.003978 0.0009288 0.0001534 1.641e-05 9.639e-07 2.065e-08 2.181e-11 2.204e-14 3.271e-17 4.092e-20 0 0 0 
0.05818 0.08117 0.1056 0.1224 0.1202 0.09781 0.06513 0.03477 0.01451 0.004566 0.00103 0.0001534 1.297e-05 4.362e-07 1.359e-09 4.136e-12 1.505e-14 4.083e-17 5.581e-20 0 0 
0.02377 0.03842 0.05918 0.08364 0.1036 0.1086 0.09424 0.06629 0.03684 0.01563 0.004823 0.001003 0.0001227 6.503e-06 5.272e-08 4.067e-10 3.148e-12 1.657e-14 4.282e-17 3.503e-20 0 
0.00707 0.01358 0.02484 0.04224 0.06504 0.08679 0.09731 0.08975 0.06632 0.03798 0.01609 0.004701 0.0008384 7.051e-05 1.356e-06 2.337e-08 3.478e-10 3.284e-12 1.493e-14 2.14e-17 0 
0.001413 0.003405 0.007657 0.01584 0.03017 0.05068 0.07251 0.08695 0.08517 0.06589 0.03851 0.01593 0.004185 0.0005639 2.398e-05 8.378e-07 2.227e-08 3.564e-10 2.714e-12 6.508e-15 0 
0.0001705 0.0005561 0.001641 0.004313 0.01036 0.02183 0.03926 0.06037 0.07773 0.08109 0.06564 0.03878 0.0152 0.003324 0.0002953 1.938e-05 8.734e-07 2.281e-08 2.813e-10 1.097e-12 0 
1.079e-05 5.278e-05 0.0002238 0.0008061 0.002575 0.006932 0.0155 0.02995 0.04986 0.06956 0.07798 0.06633 0.03934 0.01415 0.002502 0.0002918 2.157e-05 8.998e-07 1.767e-08 1.104e-10 0 
2.94e-07 2.489e-06 1.719e-05 9.438e-05 0.0004399 0.001591 0.004445 0.01059 0.02217 0.04045 0.06217 0.07628 0.06924 0.04149 0.014 0.002806 0.0003363 2.233e-05 6.971e-07 6.986e-09 0 
2.454e-09 4.551e-08 6.18e-07 6.029e-06 4.729e-05 0.0002509 0.0009071 0.002651 0.006761 0.01548 0.03153 0.05487 0.07626 0.07648 0.0477 0.01639 0.003232 0.0003479 1.758e-05 2.877e-07 0 
3.063e-12 1.956e-10 7.25e-09 1.66e-07 2.779e-06 2.465e-05 0.0001239 0.00046 0.001415 0.00386 0.009691 0.0224 0.04577 0.07546 0.08554 0.05273 0.01804 0.003302 0.0002824 7.888e-06 0 
4.394e-16 6.182e-14 5.402e-12 1.153e-09 6.853e-08 1.273e-06 1.003e-05 5.138e-05 0.0002004 0.0006504 0.001873 0.005022 0.01291 0.0313 0.06353 0.07981 0.05267 0.01786 0.002797 0.0001453 0 
0 2.823e-17 5.466e-15 8.278e-13 3.318e-10 2.735e-08 4.201e-07 3.362e-06 1.826e-05 7.608e-05 0.0002619 0.0007867 0.002158 0.005625 0.01531 0.04804 0.07167 0.05007 0.01574 0.001778 0.0001364 
0 6.689e-20 1.946e-17 5.658e-15 6.455e-12 9.606e-10 2.093e-08 2.239e-07 1.57e-06 8.218e-06 3.46e-05 0.0001234 0.0003886 0.001122 0.003274 0.01502 0.04388 0.06164 0.04164 0.01352 0.00335 
0 0 3.942e-20 2.36e-17 8.875e-14 2.331e-11 7.075e-10 1.004e-08 9.082e-08 6.003e-07 3.131e-06 1.355e-05 5.053e-05 0.0001676 0.0005569 0.003272 0.01546 0.03961 0.05126 0.03449 0.01627 
0 0 0 5.595e-20 8.433e-16 3.781e-13 1.567e-11 2.918e-10 3.39e-09 2.832e-08 1.841e-07 9.789e-07 4.413e-06 1.735e-05 6.94e-05 0.000553 0.003672 0.01537 0.03483 0.04277 0.03441 
0 0 0 0 5.361e-18 3.925e-15 2.174e-13 5.25e-12 7.783e-11 8.202e-10 6.656e-09 4.376e-08 2.413e-07 1.146e-06 5.87e-06 7.24e-05 0.0006455 0.003972 0.01457 0.03028 0.03912 
0 0 0 0 2.173e-20 2.463e-17 1.787e-15 5.531e-14 1.04e-12 1.377e-11 1.395e-10 1.137e-09 7.715e-09 4.473e-08 3.159e-07 7.121e-06 8.741e-05 0.0007327 0.00402 0.01331 0.02635 
0 0 0 0 0 8.662e-20 8.1e-18 3.185e-16 7.546e-15 1.253e-13 1.583e-12 1.601e-11 1.343e-10 9.567e-10 1.032e-08 5.114e-07 9.116e-06 0.0001008 0.0007695 0.003824 0.01111 
0 0 0 0 0 0 1.848e-20 9.178e-19 2.733e-17 5.681e-16 8.957e-15 1.127e-13 1.172e-12 1.031e-11 1.979e-10 2.615e-08 7.162e-07 1.052e-05 0.0001059 0.0007431 0.003032 
0 0 0 0 0 0 0 0 4.415e-20 1.152e-18 2.274e-17 3.575e-16 4.632e-15 5.07e-14 2.144e-12 9.273e-10 4.116e-08 8.249e-07 1.071e-05 0.0001002 0.0005494 
0 0 0 0 0 0 0 0 0 0 2.242e-20 4.439e-19 7.233e-18 9.938e-17 1.238e-14 2.204e-11 1.671e-09 4.726e-08 7.934e-07 9.535e-06 6.747e-05 
0 0 0 0 0 0 0 0 0 0 0 0 0 6.416e-20 3.536e-17 3.347e-13 4.602e-11 1.896e-09 4.202e-08 6.392e-07 5.685e-06 
0 0 0 0 0 0 0 0 0 0 0 0 0 0 4.621e-20 3.039e-15 8.14e-13 5.047e-11 1.515e-09 2.942e-08 3.267e-07 
0 0 0 0 0 0 0 0 0 0 0 0 0 0 0 1.499e-17 8.583e-15 8.266e-13 3.457e-11 8.767e-10 1.231e-08 
0 0 0 0 0 0 0 0 0 0 0 0 0 0 0 3.475e-20 4.813e-17 7.454e-15 4.476e-13 1.528e-11 2.793e-10 
0 0 0 0 0 0 0 0 0 0 0 0 0 0 0 0 1.178e-19 3.067e-17 2.744e-15 1.311e-13 3.263e-12 
0 0 0 0 0 0 0 0 0 0 0 0 0 0 0 0 0 3.831e-20 5.42e-18 3.869e-16 1.43e-14 
0 0 0 0 0 0 0 0 0 0 0 0 0 0 0 0 0 0 0 7.27e-20 7.364e-18 
0 0 0 0 0 0 0 0 0 0 0 0 0 0 0 0 0 0 0 0 0 
0 0 0 0 0 0 0 0 0 0 0 0 0 0 0 0 0 0 0 0 0 
0 0 0 0 0 0 0 0 0 0 0 0 0 0 0 0 0 0 0 0 0 
0 0 0 0 0 0 0 0 0 0 0 0 0 0 0 0 0 0 0 0 0 
</DataArray>
<DataArray Name="E" NumberOfComponents="1" format="ascii" type="Float64">
5.125 4.968 4.645 4.308 3.957 3.594 3.219 2.834 2.438 2.034 1.622 1.202 0.7767 0.3457 -0.0902 -0.5305 -0.9743 -1.422 -1.874 -2.334 -2.566 
5.125 4.968 4.645 4.308 3.957 3.594 3.219 2.834 2.438 2.034 1.622 1.202 0.7767 0.3457 -0.0902 -0.5305 -0.9743 -1.422 -1.874 -2.334 -2.566 
5.125 4.968 4.645 4.308 3.957 3.594 3.219 2.834 2.438 2.034 1.622 1.202 0.7767 0.3457 -0.0902 -0.5305 -0.9743 -1.422 -1.874 -2.334 -2.566 
5.125 4.968 4.645 4.308 3.957 3.594 3.219 2.834 2.438 2.034 1.622 1.202 0.7767 0.3457 -0.0902 -0.5305 -0.9743 -1.422 -1.874 -2.334 -2.566 
5.125 4.968 4.645 4.308 3.957 3.594 3.219 2.834 2.438 2.034 1.622 1.202 0.7767 0.3457 -0.0902 -0.5305 -0.9743 -1.422 -1.874 -2.334 -2.566 
5.125 4.968 4.645 4.308 3.957 3.594 3.219 2.834 2.438 2.034 1.622 1.202 0.7767 0.3457 -0.0902 -0.5305 -0.9743 -1.422 -1.874 -2.334 -2.566 
5.125 4.968 4.645 4.308 3.957 3.594 3.219 2.834 2.438 2.034 1.622 1.202 0.7767 0.3457 -0.0902 -0.5305 -0.9743 -1.422 -1.874 -2.334 -2.566 
5.125 4.968 4.645 4.308 3.957 3.594 3.219 2.834 2.438 2.034 1.622 1.202 0.7767 0.3457 -0.0902 -0.5305 -0.9743 -1.422 -1.874 -2.334 -2.566 
5.125 4.968 4.645 4.308 3.957 3.594 3.219 2.834 2.438 2.034 1.622 1.202 0.7767 0.3457 -0.0902 -0.5305 -0.9743 -1.422 -1.874 -2.334 -2.566 
5.125 4.968 4.645 4.308 3.957 3.594 3.219 2.834 2.438 2.034 1.622 1.202 0.7767 0.3457 -0.0902 -0.5305 -0.9743 -1.422 -1.874 -2.334 -2.566 
5.125 4.968 4.645 4.308 3.957 3.594 3.219 2.834 2.438 2.034 1.622 1.202 0.7767 0.3457 -0.0902 -0.5305 -0.9743 -1.422 -1.874 -2.334 -2.566 
5.125 4.968 4.645 4.308 3.957 3.594 3.219 2.834 2.438 2.034 1.622 1.202 0.7767 0.3457 -0.0902 -0.5305 -0.9743 -1.422 -1.874 -2.334 -2.566 
5.125 4.968 4.645 4.308 3.957 3.594 3.219 2.834 2.438 2.034 1.622 1.202 0.7767 0.3457 -0.0902 -0.5305 -0.9743 -1.422 -1.874 -2.334 -2.566 
5.125 4.968 4.645 4.308 3.957 3.594 3.219 2.834 2.438 2.034 1.622 1.202 0.7767 0.3457 -0.0902 -0.5305 -0.9743 -1.422 -1.874 -2.334 -2.566 
5.125 4.968 4.645 4.308 3.957 3.594 3.219 2.834 2.438 2.034 1.622 1.202 0.7767 0.3457 -0.0902 -0.5305 -0.9743 -1.422 -1.874 -2.334 -2.566 
5.125 4.968 4.645 4.308 3.957 3.594 3.219 2.834 2.438 2.034 1.622 1.202 0.7767 0.3457 -0.0902 -0.5305 -0.9743 -1.422 -1.874 -2.334 -2.566 
5.125 4.968 4.645 4.308 3.957 3.594 3.219 2.834 2.438 2.034 1.622 1.202 0.7767 0.3457 -0.0902 -0.5305 -0.9743 -1.422 -1.874 -2.334 -2.566 
5.125 4.968 4.645 4.308 3.957 3.594 3.219 2.834 2.438 2.034 1.622 1.202 0.7767 0.3457 -0.0902 -0.5305 -0.9743 -1.422 -1.874 -2.334 -2.566 
5.125 4.968 4.645 4.308 3.957 3.594 3.219 2.834 2.438 2.034 1.622 1.202 0.7767 0.3457 -0.0902 -0.5305 -0.9743 -1.422 -1.874 -2.334 -2.566 
5.125 4.968 4.645 4.308 3.957 3.594 3.219 2.834 2.438 2.034 1.622 1.202 0.7767 0.3457 -0.0902 -0.5305 -0.9743 -1.422 -1.874 -2.334 -2.566 
5.125 4.968 4.645 4.308 3.957 3.594 3.219 2.834 2.438 2.034 1.622 1.202 0.7767 0.3457 -0.0902 -0.5305 -0.9743 -1.422 -1.874 -2.334 -2.566 
5.125 4.968 4.645 4.308 3.957 3.594 3.219 2.834 2.438 2.034 1.622 1.202 0.7767 0.3457 -0.0902 -0.5305 -0.9743 -1.422 -1.874 -2.334 -2.566 
5.125 4.968 4.645 4.308 3.957 3.594 3.219 2.834 2.438 2.034 1.622 1.202 0.7767 0.3457 -0.0902 -0.5305 -0.9743 -1.422 -1.874 -2.334 -2.566 
5.125 4.968 4.645 4.308 3.957 3.594 3.219 2.834 2.438 2.034 1.622 1.202 0.7767 0.3457 -0.0902 -0.5305 -0.9743 -1.422 -1.874 -2.334 -2.566 
5.125 4.968 4.645 4.308 3.957 3.594 3.219 2.834 2.438 2.034 1.622 1.202 0.7767 0.3457 -0.0902 -0.5305 -0.9743 -1.422 -1.874 -2.334 -2.566 
5.125 4.968 4.645 4.308 3.957 3.594 3.219 2.834 2.438 2.034 1.622 1.202 0.7767 0.3457 -0.0902 -0.5305 -0.9743 -1.422 -1.874 -2.334 -2.566 
5.125 4.968 4.645 4.308 3.957 3.594 3.219 2.834 2.438 2.034 1.622 1.202 0.7767 0.3457 -0.0902 -0.5305 -0.9743 -1.422 -1.874 -2.334 -2.566 
5.125 4.968 4.645 4.308 3.957 3.594 3.219 2.834 2.438 2.034 1.622 1.202 0.7767 0.3457 -0.0902 -0.5305 -0.9743 -1.422 -1.874 -2.334 -2.566 
5.125 4.968 4.645 4.308 3.957 3.594 3.219 2.834 2.438 2.034 1.622 1.202 0.7767 0.3457 -0.0902 -0.5305 -0.9743 -1.422 -1.874 -2.334 -2.566 
5.125 4.968 4.645 4.308 3.957 3.594 3.219 2.834 2.438 2.034 1.622 1.202 0.7767 0.3457 -0.0902 -0.5305 -0.9743 -1.422 -1.874 -2.334 -2.566 
5.125 4.968 4.645 4.308 3.957 3.594 3.219 2.834 2.438 2.034 1.622 1.202 0.7767 0.3457 -0.0902 -0.5305 -0.9743 -1.422 -1.874 -2.334 -2.566 
5.125 4.968 4.645 4.308 3.957 3.594 3.219 2.834 2.438 2.034 1.622 1.202 0.7767 0.3457 -0.0902 -0.5305 -0.9743 -1.422 -1.874 -2.334 -2.566 
5.125 4.968 4.645 4.308 3.957 3.594 3.219 2.834 2.438 2.034 1.622 1.202 0.7767 0.3457 -0.0902 -0.5305 -0.9743 -1.422 -1.874 -2.334 -2.566 
5.125 4.968 4.645 4.308 3.957 3.594 3.219 2.834 2.438 2.034 1.622 1.202 0.7767 0.3457 -0.0902 -0.5305 -0.9743 -1.422 -1.874 -2.334 -2.566 
5.125 4.968 4.645 4.308 3.957 3.594 3.219 2.834 2.438 2.034 1.622 1.202 0.7767 0.3457 -0.0902 -0.5305 -0.9743 -1.422 -1.874 -2.334 -2.566 
5.125 4.968 4.645 4.308 3.957 3.594 3.219 2.834 2.438 2.034 1.622 1.202 0.7767 0.3457 -0.0902 -0.5305 -0.9743 -1.422 -1.874 -2.334 -2.566 
5.125 4.968 4.645 4.308 3.957 3.594 3.219 2.834 2.438 2.034 1.622 1.202 0.7767 0.3457 -0.0902 -0.5305 -0.9743 -1.422 -1.874 -2.334 -2.566 
5.125 4.968 4.645 4.308 3.957 3.594 3.219 2.834 2.438 2.034 1.622 1.202 0.7767 0.3457 -0.0902 -0.5305 -0.9743 -1.422 -1.874 -2.334 -2.566 
5.125 4.968 4.645 4.308 3.957 3.594 3.219 2.834 2.438 2.034 1.622 1.202 0.7767 0.3457 -0.0902 -0.5305 -0.9743 -1.422 -1.874 -2.334 -2.566 
5.125 4.968 4.645 4.308 3.957 3.594 3.219 2.834 2.438 2.034 1.622 1.202 0.7767 0.3457 -0.0902 -0.5305 -0.9743 -1.422 -1.874 -2.334 -2.566 
5.125 4.968 4.645 4.308 3.957 3.594 3.219 2.834 2.438 2.034 1.622 1.202 0.7767 0.3457 -0.0902 -0.5305 -0.9743 -1.422 -1.874 -2.334 -2.566 
</DataArray>
<DataArray Name="ne" NumberOfComponents="1" format="ascii" type="Float64">
0.4027 0.3702 0.3398 0.3116 0.2854 0.2612 0.239 0.2187 0.2001 0.1832 0.1679 0.1544 0.1428 0.133 0.1235 0.1152 0.1096 0.1014 0.08749 0.07375 0.07029 
0.4027 0.3702 0.3398 0.3116 0.2854 0.2612 0.239 0.2187 0.2001 0.1832 0.1679 0.1544 0.1428 0.133 0.1235 0.1152 0.1096 0.1014 0.08749 0.07375 0.07029 
0.4027 0.3702 0.3398 0.3116 0.2854 0.2612 0.239 0.2187 0.2001 0.1832 0.1679 0.1544 0.1428 0.133 0.1235 0.1152 0.1096 0.1014 0.08749 0.07375 0.07029 
0.4027 0.3702 0.3398 0.3116 0.2854 0.2612 0.239 0.2187 0.2001 0.1832 0.1679 0.1544 0.1428 0.133 0.1235 0.1152 0.1096 0.1014 0.08749 0.07375 0.07029 
0.4027 0.3702 0.3398 0.3116 0.2854 0.2612 0.239 0.2187 0.2001 0.1832 0.1679 0.1544 0.1428 0.133 0.1235 0.1152 0.1096 0.1014 0.08749 0.07375 0.07029 
0.4027 0.3702 0.3398 0.3116 0.2854 0.2612 0.239 0.2187 0.2001 0.1832 0.1679 0.1544 0.1428 0.133 0.1235 0.1152 0.1096 0.1014 0.08749 0.07375 0.07029 
0.4027 0.3702 0.3398 0.3116 0.2854 0.2612 0.239 0.2187 0.2001 0.1832 0.1679 0.1544 0.1428 0.133 0.1235 0.1152 0.1096 0.1014 0.08749 0.07375 0.07029 
0.4027 0.3702 0.3398 0.3116 0.2854 0.2612 0.239 0.2187 0.2001 0.1832 0.1679 0.1544 0.1428 0.133 0.1235 0.1152 0.1096 0.1014 0.08749 0.07375 0.07029 
0.4027 0.3702 0.3398 0.3116 0.2854 0.2612 0.239 0.2187 0.2001 0.1832 0.1679 0.1544 0.1428 0.133 0.1235 0.1152 0.1096 0.1014 0.08749 0.07375 0.07029 
0.4027 0.3702 0.3398 0.3116 0.2854 0.2612 0.239 0.2187 0.2001 0.1832 0.1679 0.1544 0.1428 0.133 0.1235 0.1152 0.1096 0.1014 0.08749 0.07375 0.07029 
0.4027 0.3702 0.3398 0.3116 0.2854 0.2612 0.239 0.2187 0.2001 0.1832 0.1679 0.1544 0.1428 0.133 0.1235 0.1152 0.1096 0.1014 0.08749 0.07375 0.07029 
0.4027 0.3702 0.3398 0.3116 0.2854 0.2612 0.239 0.2187 0.2001 0.1832 0.1679 0.1544 0.1428 0.133 0.1235 0.1152 0.1096 0.1014 0.08749 0.07375 0.07029 
0.4027 0.3702 0.3398 0.3116 0.2854 0.2612 0.239 0.2187 0.2001 0.1832 0.1679 0.1544 0.1428 0.133 0.1235 0.1152 0.1096 0.1014 0.08749 0.07375 0.07029 
0.4027 0.3702 0.3398 0.3116 0.2854 0.2612 0.239 0.2187 0.2001 0.1832 0.1679 0.1544 0.1428 0.133 0.1235 0.1152 0.1096 0.1014 0.08749 0.07375 0.07029 
0.4027 0.3702 0.3398 0.3116 0.2854 0.2612 0.239 0.2187 0.2001 0.1832 0.1679 0.1544 0.1428 0.133 0.1235 0.1152 0.1096 0.1014 0.08749 0.07375 0.07029 
0.4027 0.3702 0.3398 0.3116 0.2854 0.2612 0.239 0.2187 0.2001 0.1832 0.1679 0.1544 0.1428 0.133 0.1235 0.1152 0.1096 0.1014 0.08749 0.07375 0.07029 
0.4027 0.3702 0.3398 0.3116 0.2854 0.2612 0.239 0.2187 0.2001 0.1832 0.1679 0.1544 0.1428 0.133 0.1235 0.1152 0.1096 0.1014 0.08749 0.07375 0.07029 
0.4027 0.3702 0.3398 0.3116 0.2854 0.2612 0.239 0.2187 0.2001 0.1832 0.1679 0.1544 0.1428 0.133 0.1235 0.1152 0.1096 0.1014 0.08749 0.07375 0.07029 
0.4027 0.3702 0.3398 0.3116 0.2854 0.2612 0.239 0.2187 0.2001 0.1832 0.1679 0.1544 0.1428 0.133 0.1235 0.1152 0.1096 0.1014 0.08749 0.07375 0.07029 
0.4027 0.3702 0.3398 0.3116 0.2854 0.2612 0.239 0.2187 0.2001 0.1832 0.1679 0.1544 0.1428 0.133 0.1235 0.1152 0.1096 0.1014 0.08749 0.07375 0.07029 
0.4027 0.3702 0.3398 0.3116 0.2854 0.2612 0.239 0.2187 0.2001 0.1832 0.1679 0.1544 0.1428 0.133 0.1235 0.1152 0.1096 0.1014 0.08749 0.07375 0.07029 
0.4027 0.3702 0.3398 0.3116 0.2854 0.2612 0.239 0.2187 0.2001 0.1832 0.1679 0.1544 0.1428 0.133 0.1235 0.1152 0.1096 0.1014 0.08749 0.07375 0.07029 
0.4027 0.3702 0.3398 0.3116 0.2854 0.2612 0.239 0.2187 0.2001 0.1832 0.1679 0.1544 0.1428 0.133 0.1235 0.1152 0.1096 0.1014 0.08749 0.07375 0.07029 
0.4027 0.3702 0.3398 0.3116 0.2854 0.2612 0.239 0.2187 0.2001 0.1832 0.1679 0.1544 0.1428 0.133 0.1235 0.1152 0.1096 0.1014 0.08749 0.07375 0.07029 
0.4027 0.3702 0.3398 0.3116 0.2854 0.2612 0.239 0.2187 0.2001 0.1832 0.1679 0.1544 0.1428 0.133 0.1235 0.1152 0.1096 0.1014 0.08749 0.07375 0.07029 
0.4027 0.3702 0.3398 0.3116 0.2854 0.2612 0.239 0.2187 0.2001 0.1832 0.1679 0.1544 0.1428 0.133 0.1235 0.1152 0.1096 0.1014 0.08749 0.07375 0.07029 
0.4027 0.3702 0.3398 0.3116 0.2854 0.2612 0.239 0.2187 0.2001 0.1832 0.1679 0.1544 0.1428 0.133 0.1235 0.1152 0.1096 0.1014 0.08749 0.07375 0.07029 
0.4027 0.3702 0.3398 0.3116 0.2854 0.2612 0.239 0.2187 0.2001 0.1832 0.1679 0.1544 0.1428 0.133 0.1235 0.1152 0.1096 0.1014 0.08749 0.07375 0.07029 
0.4027 0.3702 0.3398 0.3116 0.2854 0.2612 0.239 0.2187 0.2001 0.1832 0.1679 0.1544 0.1428 0.133 0.1235 0.1152 0.1096 0.1014 0.08749 0.07375 0.07029 
0.4027 0.3702 0.3398 0.3116 0.2854 0.2612 0.239 0.2187 0.2001 0.1832 0.1679 0.1544 0.1428 0.133 0.1235 0.1152 0.1096 0.1014 0.08749 0.07375 0.07029 
0.4027 0.3702 0.3398 0.3116 0.2854 0.2612 0.239 0.2187 0.2001 0.1832 0.1679 0.1544 0.1428 0.133 0.1235 0.1152 0.1096 0.1014 0.08749 0.07375 0.07029 
0.4027 0.3702 0.3398 0.3116 0.2854 0.2612 0.239 0.2187 0.2001 0.1832 0.1679 0.1544 0.1428 0.133 0.1235 0.1152 0.1096 0.1014 0.08749 0.07375 0.07029 
0.4027 0.3702 0.3398 0.3116 0.2854 0.2612 0.239 0.2187 0.2001 0.1832 0.1679 0.1544 0.1428 0.133 0.1235 0.1152 0.1096 0.1014 0.08749 0.07375 0.07029 
0.4027 0.3702 0.3398 0.3116 0.2854 0.2612 0.239 0.2187 0.2001 0.1832 0.1679 0.1544 0.1428 0.133 0.1235 0.1152 0.1096 0.1014 0.08749 0.07375 0.07029 
0.4027 0.3702 0.3398 0.3116 0.2854 0.2612 0.239 0.2187 0.2001 0.1832 0.1679 0.1544 0.1428 0.133 0.1235 0.1152 0.1096 0.1014 0.08749 0.07375 0.07029 
0.4027 0.3702 0.3398 0.3116 0.2854 0.2612 0.239 0.2187 0.2001 0.1832 0.1679 0.1544 0.1428 0.133 0.1235 0.1152 0.1096 0.1014 0.08749 0.07375 0.07029 
0.4027 0.3702 0.3398 0.3116 0.2854 0.2612 0.239 0.2187 0.2001 0.1832 0.1679 0.1544 0.1428 0.133 0.1235 0.1152 0.1096 0.1014 0.08749 0.07375 0.07029 
0.4027 0.3702 0.3398 0.3116 0.2854 0.2612 0.239 0.2187 0.2001 0.1832 0.1679 0.1544 0.1428 0.133 0.1235 0.1152 0.1096 0.1014 0.08749 0.07375 0.07029 
0.4027 0.3702 0.3398 0.3116 0.2854 0.2612 0.239 0.2187 0.2001 0.1832 0.1679 0.1544 0.1428 0.133 0.1235 0.1152 0.1096 0.1014 0.08749 0.07375 0.07029 
0.4027 0.3702 0.3398 0.3116 0.2854 0.2612 0.239 0.2187 0.2001 0.1832 0.1679 0.1544 0.1428 0.133 0.1235 0.1152 0.1096 0.1014 0.08749 0.07375 0.07029 
0.4027 0.3702 0.3398 0.3116 0.2854 0.2612 0.239 0.2187 0.2001 0.1832 0.1679 0.1544 0.1428 0.133 0.1235 0.1152 0.1096 0.1014 0.08749 0.07375 0.07029 
</DataArray>
</PointData>
</Piece>
</ImageData>
</VTKFile>
