<VTKFile type="ImageData">
<ImageData Origin="0 -10 0" Spacing="0.5 0.5 1" WholeExtent="0 20 0 40 0 0">
<Piece Extent="0 20 0 40 0 0">
<PointData>
<DataArray Name="f" NumberOfComponents="1" format="ascii" type="Float64">
2.214e-11 3.662e-13 1.099e-17 2.223e-20 0 0 0 0 0 0 0 0 0 0 0 0 0 0 0 0 0 
8.025e-09 1.715e-10 7.602e-14 6.748e-16 0 0 0 0 0 0 0 0 0 0 0 0 0 0 0 0 0 
2.039e-07 8.748e-09 5.936e-11 1.321e-12 5.928e-17 2.401e-19 0 0 0 0 0 0 0 0 0 0 0 0 0 0 0 
3.102e-06 3.355e-07 1.855e-08 5.318e-10 3.531e-13 6.289e-15 6.393e-17 2.957e-19 0 0 0 0 0 0 0 0 0 0 0 0 0 
1.861e-05 3.595e-06 3.945e-07 2.285e-08 2.394e-10 1.07e-11 3.336e-13 6.789e-15 8.048e-17 4.463e-19 0 0 0 0 0 0 0 0 0 0 0 
6.193e-05 2.091e-05 4.417e-06 5.665e-07 3.642e-08 1.8e-09 1.066e-10 4.457e-12 1.234e-13 2.036e-15 1.628e-17 3.765e-20 0 0 0 0 0 0 0 0 0 
0.0001197 6.414e-05 2.241e-05 5e-06 6.506e-07 6.116e-08 5.509e-09 3.507e-10 1.483e-11 3.747e-13 4.612e-15 1.692e-17 0 0 0 0 0 0 0 0 0 
0.0001473 0.0001206 6.595e-05 2.373e-05 5.357e-06 8.575e-07 1.125e-07 1.042e-08 6.42e-10 2.378e-11 4.362e-13 2.51e-15 8.184e-19 0 0 0 0 0 0 0 0 
0.0001196 0.0001469 0.0001224 6.834e-05 2.487e-05 6.297e-06 1.189e-06 1.578e-07 1.396e-08 7.486e-10 2.029e-11 1.829e-13 1.185e-16 0 0 0 0 0 0 0 0 
6.437e-05 0.0001181 0.0001482 0.0001255 7.076e-05 2.722e-05 7.391e-06 1.403e-06 1.777e-07 1.376e-08 5.513e-10 7.794e-12 1.001e-14 0 0 0 0 0 0 0 0 
2.26e-05 6.236e-05 0.0001176 0.0001499 0.0001284 7.386e-05 2.904e-05 7.919e-06 1.441e-06 1.617e-07 9.604e-09 2.138e-10 5.428e-13 0 0 0 0 0 0 0 0 
4.992e-06 2.107e-05 6.039e-05 0.0001165 0.0001513 0.00013 7.502e-05 2.966e-05 7.811e-06 1.279e-06 1.136e-07 4.007e-09 2.004e-11 0 0 0 0 0 0 0 0 
6.514e-07 4.355e-06 1.944e-05 5.783e-05 0.0001153 0.0001504 0.0001297 7.542e-05 2.909e-05 7.032e-06 9.423e-07 5.317e-08 5.226e-10 0 0 0 0 0 0 0 0 
4.551e-08 5.12e-07 3.714e-06 1.771e-05 5.57e-05 0.0001135 0.0001502 0.0001308 7.513e-05 2.72e-05 5.584e-06 5.102e-07 9.839e-09 0 0 0 0 0 0 0 0 
1.444e-09 3.059e-08 3.854e-07 3.147e-06 1.633e-05 5.463e-05 0.0001146 0.0001531 0.0001336 7.393e-05 2.37e-05 3.568e-06 1.352e-07 9.236e-19 0 0 0 0 0 0 0 
1.511e-11 7.755e-10 1.866e-08 2.949e-07 2.691e-06 1.601e-05 5.559e-05 0.0001174 0.0001597 0.0001384 7.11e-05 1.808e-05 1.357e-06 2.076e-15 0 0 0 0 0 0 0 
2.025e-14 6.13e-12 3.117e-10 1.246e-08 2.181e-07 2.653e-06 1.61e-05 5.563e-05 0.0001219 0.0001711 0.0001457 6.485e-05 9.841e-06 3.111e-12 7.036e-18 0 0 0 0 0 0 
4.144e-19 6.424e-15 7.188e-13 1.802e-10 6.6e-09 2.207e-07 2.498e-06 1.474e-05 5.415e-05 0.0001285 0.0001904 0.0001563 5.022e-05 2.923e-09 1.207e-13 1.287e-17 0 0 0 0 0 
0 0 2.854e-17 3.881e-13 3.201e-11 7.421e-09 1.67e-07 1.778e-06 1.161e-05 4.96e-05 0.0001372 0.0002262 0.0001711 1.526e-06 6.203e-10 1.178e-13 3.534e-18 0 0 0 0 
0 0 0 0 3.941e-15 5.019e-11 2.447e-09 5.403e-08 7.246e-07 6.398e-06 3.776e-05 0.0001446 0.0003267 0.0003321 9.004e-07 3.591e-10 2.007e-14 8.71e-20 0 0 0 
0 0 0 0 0 0 0 0 0 4.21e-20 1.047e-14 2.944e-10 1.795e-06 0.003585 0.0003183 3.757e-07 4.466e-11 3.67e-16 0 0 0 
0 0 0 0 0 0 0 0 0 0 1.581e-18 5.972e-14 4.816e-10 1.24e-06 0.0003448 0.000162 4.277e-05 7.323e-06 8.362e-07 6.28e-08 3.404e-09 
0 0 0 0 0 0 0 0 0 0 0 5.219e-18 5.539e-14 1.853e-10 0.0001686 0.0002387 0.0001489 5.467e-05 1.294e-05 1.997e-06 2.196e-07 
0 0 0 0 0 0 0 0 0 0 0 0 2.406e-18 1.042e-14 4.926e-05 0.0001614 0.0002019 0.0001386 5.91e-05 1.624e-05 3.126e-06 
0 0 0 0 0 0 0 0 0 0 0 0 0 1.9e-19 9.584e-06 6.61e-05 0.0001522 0.0001817 0.000131 6.042e-05 1.925e-05 
0 0 0 0 0 0 0 0 0 0 0 0 0 0 1.308e-06 1.823e-05 7.339e-05 0.0001452 0.0001695 0.0001259 6.386e-05 
0 0 0 0 0 0 0 0 0 0 0 0 0 0 1.287e-07 3.561e-06 2.42e-05 7.668e-05 0.0001403 0.0001624 0.000127 
0 0 0 0 0 0 0 0 0 0 0 0 0 0 9.227e-09 5.036e-07 5.642e-06 2.792e-05 7.802e-05 0.0001373 0.000161 
0 0 0 0 0 0 0 0 0 0 0 0 0 0 4.818e-10 5.186e-08 9.415e-07 7.137e-06 2.989e-05 7.827e-05 0.0001348 
0 0 0 0 0 0 0 0 0 0 0 0 0 0 1.813e-11 3.858e-09 1.121e-07 1.284e-06 7.934e-06 3.044e-05 7.568e-05 
0 0 0 0 0 0 0 0 0 0 0 0 0 0 4.806e-13 2.03e-10 9.362e-09 1.602e-07 1.446e-06 8.03e-06 2.846e-05 
0 0 0 0 0 0 0 0 0 0 0 0 0 0 8.654e-15 7.283e-12 5.298e-10 1.346e-08 1.76e-07 1.404e-06 7.042e-06 
0 0 0 0 0 0 0 0 0 0 0 0 0 0 9.979e-17 1.68e-13 1.92e-11 7.211e-10 1.363e-08 1.557e-07 1.102e-06 
0 0 0 0 0 0 0 0 0 0 0 0 0 0 6.693e-19 2.261e-15 4.056e-13 2.253e-11 6.166e-10 1.012e-08 1.018e-07 
0 0 0 0 0 0 0 0 0 0 0 0 0 0 0 1.491e-17 4.206e-15 3.485e-13 1.399e-11 3.344e-10 4.878e-09 
0 0 0 0 0 0 0 0 0 0 0 0 0 0 0 3.237e-20 1.452e-17 1.853e-15 1.139e-13 4.16e-12 9.337e-11 
0 0 0 0 0 0 0 0 0 0 0 0 0 0 0 0 0 3.886e-19 7.158e-17 6.129e-15 3.048e-13 
0 0 0 0 0 0 0 0 0 0 0 0 0 0 0 0 0 0 0 2.51e-19 5.557e-17 
0 0 0 0 0 0 0 0 0 0 0 0 0 0 0 0 0 0 0 0 0 
0 0 0 0 0 0 0 0 0 0 0 0 0 0 0 0 0 0 0 0 0 
0 0 0 0 0 0 0 0 0 0 0 0 0 0 0 0 0 0 0 0 0 
</DataArray>
<DataArray Name="E" NumberOfComponents="1" format="ascii" type="Float64">
6.248 5.998 5.498 4.999 4.499 3.999 3.499 2.999 2.499 2 1.5 0.9998 0.5 0.00056 -0.4988 -0.9986 -1.498 -1.998 -2.498 -2.998 -3.248 
6.248 5.998 5.498 4.999 4.499 3.999 3.499 2.999 2.499 2 1.5 0.9998 0.5 0.00056 -0.4988 -0.9986 -1.498 -1.998 -2.498 -2.998 -3.248 
6.248 5.998 5.498 4.999 4.499 3.999 3.499 2.999 2.499 2 1.5 0.9998 0.5 0.00056 -0.4988 -0.9986 -1.498 -1.998 -2.498 -2.998 -3.248 
6.248 5.998 5.498 4.999 4.499 3.999 3.499 2.999 2.499 2 1.5 0.9998 0.5 0.00056 -0.4988 -0.9986 -1.498 -1.998 -2.498 -2.998 -3.248 
6.248 5.998 5.498 4.999 4.499 3.999 3.499 2.999 2.499 2 1.5 0.9998 0.5 0.00056 -0.4988 -0.9986 -1.498 -1.998 -2.498 -2.998 -3.248 
6.248 5.998 5.498 4.999 4.499 3.999 3.499 2.999 2.499 2 1.5 0.9998 0.5 0.00056 -0.4988 -0.9986 -1.498 -1.998 -2.498 -2.998 -3.248 
6.248 5.998 5.498 4.999 4.499 3.999 3.499 2.999 2.499 2 1.5 0.9998 0.5 0.00056 -0.4988 -0.9986 -1.498 -1.998 -2.498 -2.998 -3.248 
6.248 5.998 5.498 4.999 4.499 3.999 3.499 2.999 2.499 2 1.5 0.9998 0.5 0.00056 -0.4988 -0.9986 -1.498 -1.998 -2.498 -2.998 -3.248 
6.248 5.998 5.498 4.999 4.499 3.999 3.499 2.999 2.499 2 1.5 0.9998 0.5 0.00056 -0.4988 -0.9986 -1.498 -1.998 -2.498 -2.998 -3.248 
6.248 5.998 5.498 4.999 4.499 3.999 3.499 2.999 2.499 2 1.5 0.9998 0.5 0.00056 -0.4988 -0.9986 -1.498 -1.998 -2.498 -2.998 -3.248 
6.248 5.998 5.498 4.999 4.499 3.999 3.499 2.999 2.499 2 1.5 0.9998 0.5 0.00056 -0.4988 -0.9986 -1.498 -1.998 -2.498 -2.998 -3.248 
6.248 5.998 5.498 4.999 4.499 3.999 3.499 2.999 2.499 2 1.5 0.9998 0.5 0.00056 -0.4988 -0.9986 -1.498 -1.998 -2.498 -2.998 -3.248 
6.248 5.998 5.498 4.999 4.499 3.999 3.499 2.999 2.499 2 1.5 0.9998 0.5 0.00056 -0.4988 -0.9986 -1.498 -1.998 -2.498 -2.998 -3.248 
6.248 5.998 5.498 4.999 4.499 3.999 3.499 2.999 2.499 2 1.5 0.9998 0.5 0.00056 -0.4988 -0.9986 -1.498 -1.998 -2.498 -2.998 -3.248 
6.248 5.998 5.498 4.999 4.499 3.999 3.499 2.999 2.499 2 1.5 0.9998 0.5 0.00056 -0.4988 -0.9986 -1.498 -1.998 -2.498 -2.998 -3.248 
6.248 5.998 5.498 4.999 4.499 3.999 3.499 2.999 2.499 2 1.5 0.9998 0.5 0.00056 -0.4988 -0.9986 -1.498 -1.998 -2.498 -2.998 -3.248 
6.248 5.998 5.498 4.999 4.499 3.999 3.499 2.999 2.499 2 1.5 0.9998 0.5 0.00056 -0.4988 -0.9986 -1.498 -1.998 -2.498 -2.998 -3.248 
6.248 5.998 5.498 4.999 4.499 3.999 3.499 2.999 2.499 2 1.5 0.9998 0.5 0.00056 -0.4988 -0.9986 -1.498 -1.998 -2.498 -2.998 -3.248 
6.248 5.998 5.498 4.999 4.499 3.999 3.499 2.999 2.499 2 1.5 0.9998 0.5 0.00056 -0.4988 -0.9986 -1.498 -1.998 -2.498 -2.998 -3.248 
6.248 5.998 5.498 4.999 4.499 3.999 3.499 2.999 2.499 2 1.5 0.9998 0.5 0.00056 -0.4988 -0.9986 -1.498 -1.998 -2.498 -2.998 -3.248 
6.248 5.998 5.498 4.999 4.499 3.999 3.499 2.999 2.499 2 1.5 0.9998 0.5 0.00056 -0.4988 -0.9986 -1.498 -1.998 -2.498 -2.998 -3.248 
6.248 5.998 5.498 4.999 4.499 3.999 3.499 2.999 2.499 2 1.5 0.9998 0.5 0.00056 -0.4988 -0.9986 -1.498 -1.998 -2.498 -2.998 -3.248 
6.248 5.998 5.498 4.999 4.499 3.999 3.499 2.999 2.499 2 1.5 0.9998 0.5 0.00056 -0.4988 -0.9986 -1.498 -1.998 -2.498 -2.998 -3.248 
6.248 5.998 5.498 4.999 4.499 3.999 3.499 2.999 2.499 2 1.5 0.9998 0.5 0.00056 -0.4988 -0.9986 -1.498 -1.998 -2.498 -2.998 -3.248 
6.248 5.998 5.498 4.999 4.499 3.999 3.499 2.999 2.499 2 1.5 0.9998 0.5 0.00056 -0.4988 -0.9986 -1.498 -1.998 -2.498 -2.998 -3.248 
6.248 5.998 5.498 4.999 4.499 3.999 3.499 2.999 2.499 2 1.5 0.9998 0.5 0.00056 -0.4988 -0.9986 -1.498 -1.998 -2.498 -2.998 -3.248 
6.248 5.998 5.498 4.999 4.499 3.999 3.499 2.999 2.499 2 1.5 0.9998 0.5 0.00056 -0.4988 -0.9986 -1.498 -1.998 -2.498 -2.998 -3.248 
6.248 5.998 5.498 4.999 4.499 3.999 3.499 2.999 2.499 2 1.5 0.9998 0.5 0.00056 -0.4988 -0.9986 -1.498 -1.998 -2.498 -2.998 -3.248 
6.248 5.998 5.498 4.999 4.499 3.999 3.499 2.999 2.499 2 1.5 0.9998 0.5 0.00056 -0.4988 -0.9986 -1.498 -1.998 -2.498 -2.998 -3.248 
6.248 5.998 5.498 4.999 4.499 3.999 3.499 2.999 2.499 2 1.5 0.9998 0.5 0.00056 -0.4988 -0.9986 -1.498 -1.998 -2.498 -2.998 -3.248 
6.248 5.998 5.498 4.999 4.499 3.999 3.499 2.999 2.499 2 1.5 0.9998 0.5 0.00056 -0.4988 -0.9986 -1.498 -1.998 -2.498 -2.998 -3.248 
6.248 5.998 5.498 4.999 4.499 3.999 3.499 2.999 2.499 2 1.5 0.9998 0.5 0.00056 -0.4988 -0.9986 -1.498 -1.998 -2.498 -2.998 -3.248 
6.248 5.998 5.498 4.999 4.499 3.999 3.499 2.999 2.499 2 1.5 0.9998 0.5 0.00056 -0.4988 -0.9986 -1.498 -1.998 -2.498 -2.998 -3.248 
6.248 5.998 5.498 4.999 4.499 3.999 3.499 2.999 2.499 2 1.5 0.9998 0.5 0.00056 -0.4988 -0.9986 -1.498 -1.998 -2.498 -2.998 -3.248 
6.248 5.998 5.498 4.999 4.499 3.999 3.499 2.999 2.499 2 1.5 0.9998 0.5 0.00056 -0.4988 -0.9986 -1.498 -1.998 -2.498 -2.998 -3.248 
6.248 5.998 5.498 4.999 4.499 3.999 3.499 2.999 2.499 2 1.5 0.9998 0.5 0.00056 -0.4988 -0.9986 -1.498 -1.998 -2.498 -2.998 -3.248 
6.248 5.998 5.498 4.999 4.499 3.999 3.499 2.999 2.499 2 1.5 0.9998 0.5 0.00056 -0.4988 -0.9986 -1.498 -1.998 -2.498 -2.998 -3.248 
6.248 5.998 5.498 4.999 4.499 3.999 3.499 2.999 2.499 2 1.5 0.9998 0.5 0.00056 -0.4988 -0.9986 -1.498 -1.998 -2.498 -2.998 -3.248 
6.248 5.998 5.498 4.999 4.499 3.999 3.499 2.999 2.499 2 1.5 0.9998 0.5 0.00056 -0.4988 -0.9986 -1.498 -1.998 -2.498 -2.998 -3.248 
6.248 5.998 5.498 4.999 4.499 3.999 3.499 2.999 2.499 2 1.5 0.9998 0.5 0.00056 -0.4988 -0.9986 -1.498 -1.998 -2.498 -2.998 -3.248 
6.248 5.998 5.498 4.999 4.499 3.999 3.499 2.999 2.499 2 1.5 0.9998 0.5 0.00056 -0.4988 -0.9986 -1.498 -1.998 -2.498 -2.998 -3.248 
</DataArray>
<DataArray Name="ne" NumberOfComponents="1" format="ascii" type="Float64">
0.0002983 0.0002991 0.0003008 0.0003023 0.0003043 0.0003064 0.0003096 0.0003132 0.0003171 0.0003217 0.0003266 0.0003277 0.0002996 0.001971 0.0004776 0.0003474 0.0003469 0.0003414 0.0003362 0.0003313 0.0003301 
0.0002983 0.0002991 0.0003008 0.0003023 0.0003043 0.0003064 0.0003096 0.0003132 0.0003171 0.0003217 0.0003266 0.0003277 0.0002996 0.001971 0.0004776 0.0003474 0.0003469 0.0003414 0.0003362 0.0003313 0.0003301 
0.0002983 0.0002991 0.0003008 0.0003023 0.0003043 0.0003064 0.0003096 0.0003132 0.0003171 0.0003217 0.0003266 0.0003277 0.0002996 0.001971 0.0004776 0.0003474 0.0003469 0.0003414 0.0003362 0.0003313 0.0003301 
0.0002983 0.0002991 0.0003008 0.0003023 0.0003043 0.0003064 0.0003096 0.0003132 0.0003171 0.0003217 0.0003266 0.0003277 0.0002996 0.001971 0.0004776 0.0003474 0.0003469 0.0003414 0.0003362 0.0003313 0.0003301 
0.0002983 0.0002991 0.0003008 0.0003023 0.0003043 0.0003064 0.0003096 0.0003132 0.0003171 0.0003217 0.0003266 0.0003277 0.0002996 0.001971 0.0004776 0.0003474 0.0003469 0.0003414 0.0003362 0.0003313 0.0003301 
0.0002983 0.0002991 0.0003008 0.0003023 0.0003043 0.0003064 0.0003096 0.0003132 0.0003171 0.0003217 0.0003266 0.0003277 0.0002996 0.001971 0.0004776 0.0003474 0.0003469 0.0003414 0.0003362 0.0003313 0.0003301 
0.0002983 0.0002991 0.0003008 0.0003023 0.0003043 0.0003064 0.0003096 0.0003132 0.0003171 0.0003217 0.0003266 0.0003277 0.0002996 0.001971 0.0004776 0.0003474 0.0003469 0.0003414 0.0003362 0.0003313 0.0003301 
0.0002983 0.0002991 0.0003008 0.0003023 0.0003043 0.0003064 0.0003096 0.0003132 0.0003171 0.0003217 0.0003266 0.0003277 0.0002996 0.001971 0.0004776 0.0003474 0.0003469 0.0003414 0.0003362 0.0003313 0.0003301 
0.0002983 0.0002991 0.0003008 0.0003023 0.0003043 0.0003064 0.0003096 0.0003132 0.0003171 0.0003217 0.0003266 0.0003277 0.0002996 0.001971 0.0004776 0.0003474 0.0003469 0.0003414 0.0003362 0.0003313 0.0003301 
0.0002983 0.0002991 0.0003008 0.0003023 0.0003043 0.0003064 0.0003096 0.0003132 0.0003171 0.0003217 0.0003266 0.0003277 0.0002996 0.001971 0.0004776 0.0003474 0.0003469 0.0003414 0.0003362 0.0003313 0.0003301 
0.0002983 0.0002991 0.0003008 0.0003023 0.0003043 0.0003064 0.0003096 0.0003132 0.0003171 0.0003217 0.0003266 0.0003277 0.0002996 0.001971 0.0004776 0.0003474 0.0003469 0.0003414 0.0003362 0.0003313 0.0003301 
0.0002983 0.0002991 0.0003008 0.0003023 0.0003043 0.0003064 0.0003096 0.0003132 0.0003171 0.0003217 0.0003266 0.0003277 0.0002996 0.001971 0.0004776 0.0003474 0.0003469 0.0003414 0.0003362 0.0003313 0.0003301 
0.0002983 0.0002991 0.0003008 0.0003023 0.0003043 0.0003064 0.0003096 0.0003132 0.0003171 0.0003217 0.0003266 0.0003277 0.0002996 0.001971 0.0004776 0.0003474 0.0003469 0.0003414 0.0003362 0.0003313 0.0003301 
0.0002983 0.0002991 0.0003008 0.0003023 0.0003043 0.0003064 0.0003096 0.0003132 0.0003171 0.0003217 0.0003266 0.0003277 0.0002996 0.001971 0.0004776 0.0003474 0.0003469 0.0003414 0.0003362 0.0003313 0.0003301 
0.0002983 0.0002991 0.0003008 0.0003023 0.0003043 0.0003064 0.0003096 0.0003132 0.0003171 0.0003217 0.0003266 0.0003277 0.0002996 0.001971 0.0004776 0.0003474 0.0003469 0.0003414 0.0003362 0.0003313 0.0003301 
0.0002983 0.0002991 0.0003008 0.0003023 0.0003043 0.0003064 0.0003096 0.0003132 0.0003171 0.0003217 0.0003266 0.0003277 0.0002996 0.001971 0.0004776 0.0003474 0.0003469 0.0003414 0.0003362 0.0003313 0.0003301 
0.0002983 0.0002991 0.0003008 0.0003023 0.0003043 0.0003064 0.0003096 0.0003132 0.0003171 0.0003217 0.0003266 0.0003277 0.0002996 0.001971 0.0004776 0.0003474 0.0003469 0.0003414 0.0003362 0.0003313 0.0003301 
0.0002983 0.0002991 0.0003008 0.0003023 0.0003043 0.0003064 0.0003096 0.0003132 0.0003171 0.0003217 0.0003266 0.0003277 0.0002996 0.001971 0.0004776 0.0003474 0.0003469 0.0003414 0.0003362 0.0003313 0.0003301 
0.0002983 0.0002991 0.0003008 0.0003023 0.0003043 0.0003064 0.0003096 0.0003132 0.0003171 0.0003217 0.0003266 0.0003277 0.0002996 0.001971 0.0004776 0.0003474 0.0003469 0.0003414 0.0003362 0.0003313 0.0003301 
0.0002983 0.0002991 0.0003008 0.0003023 0.0003043 0.0003064 0.0003096 0.0003132 0.0003171 0.0003217 0.0003266 0.0003277 0.0002996 0.001971 0.0004776 0.0003474 0.0003469 0.0003414 0.0003362 0.0003313 0.0003301 
0.0002983 0.0002991 0.0003008 0.0003023 0.0003043 0.0003064 0.0003096 0.0003132 0.0003171 0.0003217 0.0003266 0.0003277 0.0002996 0.001971 0.0004776 0.0003474 0.0003469 0.0003414 0.0003362 0.0003313 0.0003301 
0.0002983 0.0002991 0.0003008 0.0003023 0.0003043 0.0003064 0.0003096 0.0003132 0.0003171 0.0003217 0.0003266 0.0003277 0.0002996 0.001971 0.0004776 0.0003474 0.0003469 0.0003414 0.0003362 0.0003313 0.0003301 
0.0002983 0.0002991 0.0003008 0.0003023 0.0003043 0.0003064 0.0003096 0.0003132 0.0003171 0.0003217 0.0003266 0.0003277 0.0002996 0.001971 0.0004776 0.0003474 0.0003469 0.0003414 0.0003362 0.0003313 0.0003301 
0.0002983 0.0002991 0.0003008 0.0003023 0.0003043 0.0003064 0.0003096 0.0003132 0.0003171 0.0003217 0.0003266 0.0003277 0.0002996 0.001971 0.0004776 0.0003474 0.0003469 0.0003414 0.0003362 0.0003313 0.0003301 
0.0002983 0.0002991 0.0003008 0.0003023 0.0003043 0.0003064 0.0003096 0.0003132 0.0003171 0.0003217 0.0003266 0.0003277 0.0002996 0.001971 0.0004776 0.0003474 0.0003469 0.0003414 0.0003362 0.0003313 0.0003301 
0.0002983 0.0002991 0.0003008 0.0003023 0.0003043 0.0003064 0.0003096 0.0003132 0.0003171 0.0003217 0.0003266 0.0003277 0.0002996 0.001971 0.0004776 0.0003474 0.0003469 0.0003414 0.0003362 0.0003313 0.0003301 
0.0002983 0.0002991 0.0003008 0.0003023 0.0003043 0.0003064 0.0003096 0.0003132 0.0003171 0.0003217 0.0003266 0.0003277 0.0002996 0.001971 0.0004776 0.0003474 0.0003469 0.0003414 0.0003362 0.0003313 0.0003301 
0.0002983 0.0002991 0.0003008 0.0003023 0.0003043 0.0003064 0.0003096 0.0003132 0.0003171 0.0003217 0.0003266 0.0003277 0.0002996 0.001971 0.0004776 0.0003474 0.0003469 0.0003414 0.0003362 0.0003313 0.0003301 
0.0002983 0.0002991 0.0003008 0.0003023 0.0003043 0.0003064 0.0003096 0.0003132 0.0003171 0.0003217 0.0003266 0.0003277 0.0002996 0.001971 0.0004776 0.0003474 0.0003469 0.0003414 0.0003362 0.0003313 0.0003301 
0.0002983 0.0002991 0.0003008 0.0003023 0.0003043 0.0003064 0.0003096 0.0003132 0.0003171 0.0003217 0.0003266 0.0003277 0.0002996 0.001971 0.0004776 0.0003474 0.0003469 0.0003414 0.0003362 0.0003313 0.0003301 
0.0002983 0.0002991 0.0003008 0.0003023 0.0003043 0.0003064 0.0003096 0.0003132 0.0003171 0.0003217 0.0003266 0.0003277 0.0002996 0.001971 0.0004776 0.0003474 0.0003469 0.0003414 0.0003362 0.0003313 0.0003301 
0.0002983 0.0002991 0.0003008 0.0003023 0.0003043 0.0003064 0.0003096 0.0003132 0.0003171 0.0003217 0.0003266 0.0003277 0.0002996 0.001971 0.0004776 0.0003474 0.0003469 0.0003414 0.0003362 0.0003313 0.0003301 
0.0002983 0.0002991 0.0003008 0.0003023 0.0003043 0.0003064 0.0003096 0.0003132 0.0003171 0.0003217 0.0003266 0.0003277 0.0002996 0.001971 0.0004776 0.0003474 0.0003469 0.0003414 0.0003362 0.0003313 0.0003301 
0.0002983 0.0002991 0.0003008 0.0003023 0.0003043 0.0003064 0.0003096 0.0003132 0.0003171 0.0003217 0.0003266 0.0003277 0.0002996 0.001971 0.0004776 0.0003474 0.0003469 0.0003414 0.0003362 0.0003313 0.0003301 
0.0002983 0.0002991 0.0003008 0.0003023 0.0003043 0.0003064 0.0003096 0.0003132 0.0003171 0.0003217 0.0003266 0.0003277 0.0002996 0.001971 0.0004776 0.0003474 0.0003469 0.0003414 0.0003362 0.0003313 0.0003301 
0.0002983 0.0002991 0.0003008 0.0003023 0.0003043 0.0003064 0.0003096 0.0003132 0.0003171 0.0003217 0.0003266 0.0003277 0.0002996 0.001971 0.0004776 0.0003474 0.0003469 0.0003414 0.0003362 0.0003313 0.0003301 
0.0002983 0.0002991 0.0003008 0.0003023 0.0003043 0.0003064 0.0003096 0.0003132 0.0003171 0.0003217 0.0003266 0.0003277 0.0002996 0.001971 0.0004776 0.0003474 0.0003469 0.0003414 0.0003362 0.0003313 0.0003301 
0.0002983 0.0002991 0.0003008 0.0003023 0.0003043 0.0003064 0.0003096 0.0003132 0.0003171 0.0003217 0.0003266 0.0003277 0.0002996 0.001971 0.0004776 0.0003474 0.0003469 0.0003414 0.0003362 0.0003313 0.0003301 
0.0002983 0.0002991 0.0003008 0.0003023 0.0003043 0.0003064 0.0003096 0.0003132 0.0003171 0.0003217 0.0003266 0.0003277 0.0002996 0.001971 0.0004776 0.0003474 0.0003469 0.0003414 0.0003362 0.0003313 0.0003301 
0.0002983 0.0002991 0.0003008 0.0003023 0.0003043 0.0003064 0.0003096 0.0003132 0.0003171 0.0003217 0.0003266 0.0003277 0.0002996 0.001971 0.0004776 0.0003474 0.0003469 0.0003414 0.0003362 0.0003313 0.0003301 
0.0002983 0.0002991 0.0003008 0.0003023 0.0003043 0.0003064 0.0003096 0.0003132 0.0003171 0.0003217 0.0003266 0.0003277 0.0002996 0.001971 0.0004776 0.0003474 0.0003469 0.0003414 0.0003362 0.0003313 0.0003301 
</DataArray>
</PointData>
</Piece>
</ImageData>
</VTKFile>
