<VTKFile type="ImageData">
<ImageData Origin="0 -10 0" Spacing="0.5 0.5 1" WholeExtent="0 20 0 40 0 0">
<Piece Extent="0 20 0 40 0 0">
<PointData>
<DataArray Name="f" NumberOfComponents="1" format="ascii" type="Float64">
5.192e-12 8.562e-14 2.53e-18 0 0 0 0 0 0 0 0 0 0 0 0 0 0 0 0 0 0 
1.885e-09 4.024e-11 1.767e-14 1.562e-16 0 0 0 0 0 0 0 0 0 0 0 0 0 0 0 0 0 
4.781e-08 2.048e-09 1.385e-11 3.074e-13 1.361e-17 5.463e-20 0 0 0 0 0 0 0 0 0 0 0 0 0 0 0 
7.257e-07 7.841e-08 4.333e-09 1.24e-10 8.175e-14 1.449e-15 1.465e-17 6.719e-20 0 0 0 0 0 0 0 0 0 0 0 0 0 
4.342e-06 8.383e-07 9.192e-08 5.318e-09 5.559e-11 2.476e-12 7.694e-14 1.559e-15 1.839e-17 1.012e-19 0 0 0 0 0 0 0 0 0 0 0 
1.441e-05 4.862e-06 1.027e-06 1.316e-07 8.45e-09 4.166e-10 2.461e-11 1.025e-12 2.829e-14 4.643e-16 3.687e-18 0 0 0 0 0 0 0 0 0 0 
2.778e-05 1.488e-05 5.194e-06 1.158e-06 1.505e-07 1.413e-08 1.269e-09 8.052e-11 3.393e-12 8.53e-14 1.043e-15 3.782e-18 0 0 0 0 0 0 0 0 0 
3.41e-05 2.789e-05 1.524e-05 5.48e-06 1.236e-06 1.975e-07 2.585e-08 2.386e-09 1.465e-10 5.4e-12 9.843e-14 5.604e-16 1.769e-19 0 0 0 0 0 0 0 0 
2.761e-05 3.389e-05 2.822e-05 1.573e-05 5.72e-06 1.446e-06 2.722e-07 3.603e-08 3.177e-09 1.696e-10 4.57e-12 4.077e-14 2.567e-17 0 0 0 0 0 0 0 0 
1.482e-05 2.717e-05 3.405e-05 2.881e-05 1.622e-05 6.23e-06 1.687e-06 3.195e-07 4.032e-08 3.11e-09 1.238e-10 1.735e-12 2.172e-15 0 0 0 0 0 0 0 0 
5.191e-06 1.43e-05 2.694e-05 3.431e-05 2.935e-05 1.685e-05 6.611e-06 1.798e-06 3.26e-07 3.643e-08 2.152e-09 4.751e-11 1.18e-13 0 0 0 0 0 0 0 0 
1.143e-06 4.821e-06 1.38e-05 2.658e-05 3.447e-05 2.958e-05 1.703e-05 6.716e-06 1.763e-06 2.876e-07 2.539e-08 8.886e-10 4.36e-12 0 0 0 0 0 0 0 0 
1.489e-07 9.94e-07 4.43e-06 1.316e-05 2.62e-05 3.412e-05 2.937e-05 1.703e-05 6.548e-06 1.577e-06 2.102e-07 1.177e-08 1.138e-10 0 0 0 0 0 0 0 0 
1.038e-08 1.166e-07 8.446e-07 4.021e-06 1.263e-05 2.57e-05 3.393e-05 2.947e-05 1.687e-05 6.085e-06 1.243e-06 1.127e-07 2.143e-09 0 0 0 0 0 0 0 0 
3.285e-10 6.952e-09 8.747e-08 7.131e-07 3.694e-06 1.234e-05 2.583e-05 3.443e-05 2.994e-05 1.65e-05 5.263e-06 7.87e-07 2.945e-08 0 0 0 0 0 0 0 0 
3.43e-12 1.759e-10 4.227e-09 6.671e-08 6.078e-07 3.61e-06 1.251e-05 2.633e-05 3.571e-05 3.084e-05 1.576e-05 3.981e-06 2.955e-07 3.415e-18 0 0 0 0 0 0 0 
4.532e-15 1.389e-12 7.042e-11 2.816e-09 4.916e-08 5.974e-07 3.619e-06 1.247e-05 2.722e-05 3.805e-05 3.225e-05 1.426e-05 2.141e-06 1.679e-14 0 0 0 0 0 0 0 
3.813e-20 1.458e-15 1.602e-13 4.066e-11 1.484e-09 4.965e-08 5.61e-07 3.301e-06 1.208e-05 2.855e-05 4.21e-05 3.434e-05 1.092e-05 5.266e-11 1.671e-16 0 0 0 0 0 0 
0 0 2.724e-18 8.772e-14 7.1e-12 1.669e-09 3.75e-08 3.982e-07 2.592e-06 1.102e-05 3.033e-05 4.97e-05 3.722e-05 9.392e-08 5.086e-12 1.521e-16 0 0 0 0 0 
0 0 0 0 3.908e-16 1.13e-11 5.505e-10 1.212e-08 1.62e-07 1.424e-06 8.362e-06 3.183e-05 7.15e-05 7.234e-05 3.868e-08 2.428e-12 1.524e-17 0 0 0 0 
0 0 0 0 0 0 0 0 0 0 3.729e-17 9.338e-12 3.618e-07 0.003582 6.447e-05 1.197e-08 1.597e-13 9.034e-20 0 0 0 
0 0 0 0 0 0 0 0 0 0 0 4.024e-16 2.063e-11 2.632e-07 7.102e-05 3.354e-05 8.907e-06 1.532e-06 1.755e-07 1.321e-08 7.169e-10 
0 0 0 0 0 0 0 0 0 0 0 0 4.53e-16 7.515e-12 3.525e-05 5.013e-05 3.14e-05 1.157e-05 2.746e-06 4.249e-07 4.681e-08 
0 0 0 0 0 0 0 0 0 0 0 0 0 7.133e-17 1.046e-05 3.433e-05 4.307e-05 2.964e-05 1.267e-05 3.488e-06 6.723e-07 
0 0 0 0 0 0 0 0 0 0 0 0 0 0 2.065e-06 1.424e-05 3.286e-05 3.928e-05 2.838e-05 1.31e-05 4.178e-06 
0 0 0 0 0 0 0 0 0 0 0 0 0 0 2.862e-07 3.981e-06 1.603e-05 3.174e-05 3.709e-05 2.755e-05 1.398e-05 
0 0 0 0 0 0 0 0 0 0 0 0 0 0 2.861e-08 7.88e-07 5.352e-06 1.696e-05 3.103e-05 3.591e-05 2.808e-05 
0 0 0 0 0 0 0 0 0 0 0 0 0 0 2.084e-09 1.13e-07 1.264e-06 6.249e-06 1.746e-05 3.069e-05 3.598e-05 
0 0 0 0 0 0 0 0 0 0 0 0 0 0 1.107e-10 1.181e-08 2.138e-07 1.618e-06 6.769e-06 1.77e-05 3.047e-05 
0 0 0 0 0 0 0 0 0 0 0 0 0 0 4.24e-12 8.919e-10 2.582e-08 2.95e-07 1.82e-06 6.973e-06 1.731e-05 
0 0 0 0 0 0 0 0 0 0 0 0 0 0 1.145e-13 4.768e-11 2.188e-09 3.735e-08 3.363e-07 1.864e-06 6.597e-06 
0 0 0 0 0 0 0 0 0 0 0 0 0 0 2.103e-15 1.739e-12 1.258e-10 3.185e-09 4.154e-08 3.308e-07 1.655e-06 
0 0 0 0 0 0 0 0 0 0 0 0 0 0 2.477e-17 4.083e-14 4.637e-12 1.734e-10 3.267e-09 3.724e-08 2.631e-07 
0 0 0 0 0 0 0 0 0 0 0 0 0 0 1.7e-19 5.599e-16 9.968e-14 5.512e-12 1.503e-10 2.46e-09 2.469e-08 
0 0 0 0 0 0 0 0 0 0 0 0 0 0 0 3.768e-18 1.053e-15 8.683e-14 3.473e-12 8.278e-11 1.204e-09 
0 0 0 0 0 0 0 0 0 0 0 0 0 0 0 0 3.711e-18 4.709e-16 2.884e-14 1.05e-12 2.35e-11 
0 0 0 0 0 0 0 0 0 0 0 0 0 0 0 0 0 1.015e-19 1.858e-17 1.584e-15 7.849e-14 
0 0 0 0 0 0 0 0 0 0 0 0 0 0 0 0 0 0 0 6.707e-20 1.474e-17 
0 0 0 0 0 0 0 0 0 0 0 0 0 0 0 0 0 0 0 0 0 
0 0 0 0 0 0 0 0 0 0 0 0 0 0 0 0 0 0 0 0 0 
0 0 0 0 0 0 0 0 0 0 0 0 0 0 0 0 0 0 0 0 0 
</DataArray>
<DataArray Name="E" NumberOfComponents="1" format="ascii" type="Float64">
6.249 5.999 5.499 4.999 4.499 4 3.5 3 2.5 2 1.5 0.9997 0.4998 0.0002316 -0.4993 -0.9992 -1.499 -1.999 -2.499 -2.999 -3.249 
6.249 5.999 5.499 4.999 4.499 4 3.5 3 2.5 2 1.5 0.9997 0.4998 0.0002316 -0.4993 -0.9992 -1.499 -1.999 -2.499 -2.999 -3.249 
6.249 5.999 5.499 4.999 4.499 4 3.5 3 2.5 2 1.5 0.9997 0.4998 0.0002316 -0.4993 -0.9992 -1.499 -1.999 -2.499 -2.999 -3.249 
6.249 5.999 5.499 4.999 4.499 4 3.5 3 2.5 2 1.5 0.9997 0.4998 0.0002316 -0.4993 -0.9992 -1.499 -1.999 -2.499 -2.999 -3.249 
6.249 5.999 5.499 4.999 4.499 4 3.5 3 2.5 2 1.5 0.9997 0.4998 0.0002316 -0.4993 -0.9992 -1.499 -1.999 -2.499 -2.999 -3.249 
6.249 5.999 5.499 4.999 4.499 4 3.5 3 2.5 2 1.5 0.9997 0.4998 0.0002316 -0.4993 -0.9992 -1.499 -1.999 -2.499 -2.999 -3.249 
6.249 5.999 5.499 4.999 4.499 4 3.5 3 2.5 2 1.5 0.9997 0.4998 0.0002316 -0.4993 -0.9992 -1.499 -1.999 -2.499 -2.999 -3.249 
6.249 5.999 5.499 4.999 4.499 4 3.5 3 2.5 2 1.5 0.9997 0.4998 0.0002316 -0.4993 -0.9992 -1.499 -1.999 -2.499 -2.999 -3.249 
6.249 5.999 5.499 4.999 4.499 4 3.5 3 2.5 2 1.5 0.9997 0.4998 0.0002316 -0.4993 -0.9992 -1.499 -1.999 -2.499 -2.999 -3.249 
6.249 5.999 5.499 4.999 4.499 4 3.5 3 2.5 2 1.5 0.9997 0.4998 0.0002316 -0.4993 -0.9992 -1.499 -1.999 -2.499 -2.999 -3.249 
6.249 5.999 5.499 4.999 4.499 4 3.5 3 2.5 2 1.5 0.9997 0.4998 0.0002316 -0.4993 -0.9992 -1.499 -1.999 -2.499 -2.999 -3.249 
6.249 5.999 5.499 4.999 4.499 4 3.5 3 2.5 2 1.5 0.9997 0.4998 0.0002316 -0.4993 -0.9992 -1.499 -1.999 -2.499 -2.999 -3.249 
6.249 5.999 5.499 4.999 4.499 4 3.5 3 2.5 2 1.5 0.9997 0.4998 0.0002316 -0.4993 -0.9992 -1.499 -1.999 -2.499 -2.999 -3.249 
6.249 5.999 5.499 4.999 4.499 4 3.5 3 2.5 2 1.5 0.9997 0.4998 0.0002316 -0.4993 -0.9992 -1.499 -1.999 -2.499 -2.999 -3.249 
6.249 5.999 5.499 4.999 4.499 4 3.5 3 2.5 2 1.5 0.9997 0.4998 0.0002316 -0.4993 -0.9992 -1.499 -1.999 -2.499 -2.999 -3.249 
6.249 5.999 5.499 4.999 4.499 4 3.5 3 2.5 2 1.5 0.9997 0.4998 0.0002316 -0.4993 -0.9992 -1.499 -1.999 -2.499 -2.999 -3.249 
6.249 5.999 5.499 4.999 4.499 4 3.5 3 2.5 2 1.5 0.9997 0.4998 0.0002316 -0.4993 -0.9992 -1.499 -1.999 -2.499 -2.999 -3.249 
6.249 5.999 5.499 4.999 4.499 4 3.5 3 2.5 2 1.5 0.9997 0.4998 0.0002316 -0.4993 -0.9992 -1.499 -1.999 -2.499 -2.999 -3.249 
6.249 5.999 5.499 4.999 4.499 4 3.5 3 2.5 2 1.5 0.9997 0.4998 0.0002316 -0.4993 -0.9992 -1.499 -1.999 -2.499 -2.999 -3.249 
6.249 5.999 5.499 4.999 4.499 4 3.5 3 2.5 2 1.5 0.9997 0.4998 0.0002316 -0.4993 -0.9992 -1.499 -1.999 -2.499 -2.999 -3.249 
6.249 5.999 5.499 4.999 4.499 4 3.5 3 2.5 2 1.5 0.9997 0.4998 0.0002316 -0.4993 -0.9992 -1.499 -1.999 -2.499 -2.999 -3.249 
6.249 5.999 5.499 4.999 4.499 4 3.5 3 2.5 2 1.5 0.9997 0.4998 0.0002316 -0.4993 -0.9992 -1.499 -1.999 -2.499 -2.999 -3.249 
6.249 5.999 5.499 4.999 4.499 4 3.5 3 2.5 2 1.5 0.9997 0.4998 0.0002316 -0.4993 -0.9992 -1.499 -1.999 -2.499 -2.999 -3.249 
6.249 5.999 5.499 4.999 4.499 4 3.5 3 2.5 2 1.5 0.9997 0.4998 0.0002316 -0.4993 -0.9992 -1.499 -1.999 -2.499 -2.999 -3.249 
6.249 5.999 5.499 4.999 4.499 4 3.5 3 2.5 2 1.5 0.9997 0.4998 0.0002316 -0.4993 -0.9992 -1.499 -1.999 -2.499 -2.999 -3.249 
6.249 5.999 5.499 4.999 4.499 4 3.5 3 2.5 2 1.5 0.9997 0.4998 0.0002316 -0.4993 -0.9992 -1.499 -1.999 -2.499 -2.999 -3.249 
6.249 5.999 5.499 4.999 4.499 4 3.5 3 2.5 2 1.5 0.9997 0.4998 0.0002316 -0.4993 -0.9992 -1.499 -1.999 -2.499 -2.999 -3.249 
6.249 5.999 5.499 4.999 4.499 4 3.5 3 2.5 2 1.5 0.9997 0.4998 0.0002316 -0.4993 -0.9992 -1.499 -1.999 -2.499 -2.999 -3.249 
6.249 5.999 5.499 4.999 4.499 4 3.5 3 2.5 2 1.5 0.9997 0.4998 0.0002316 -0.4993 -0.9992 -1.499 -1.999 -2.499 -2.999 -3.249 
6.249 5.999 5.499 4.999 4.499 4 3.5 3 2.5 2 1.5 0.9997 0.4998 0.0002316 -0.4993 -0.9992 -1.499 -1.999 -2.499 -2.999 -3.249 
6.249 5.999 5.499 4.999 4.499 4 3.5 3 2.5 2 1.5 0.9997 0.4998 0.0002316 -0.4993 -0.9992 -1.499 -1.999 -2.499 -2.999 -3.249 
6.249 5.999 5.499 4.999 4.499 4 3.5 3 2.5 2 1.5 0.9997 0.4998 0.0002316 -0.4993 -0.9992 -1.499 -1.999 -2.499 -2.999 -3.249 
6.249 5.999 5.499 4.999 4.499 4 3.5 3 2.5 2 1.5 0.9997 0.4998 0.0002316 -0.4993 -0.9992 -1.499 -1.999 -2.499 -2.999 -3.249 
6.249 5.999 5.499 4.999 4.499 4 3.5 3 2.5 2 1.5 0.9997 0.4998 0.0002316 -0.4993 -0.9992 -1.499 -1.999 -2.499 -2.999 -3.249 
6.249 5.999 5.499 4.999 4.499 4 3.5 3 2.5 2 1.5 0.9997 0.4998 0.0002316 -0.4993 -0.9992 -1.499 -1.999 -2.499 -2.999 -3.249 
6.249 5.999 5.499 4.999 4.499 4 3.5 3 2.5 2 1.5 0.9997 0.4998 0.0002316 -0.4993 -0.9992 -1.499 -1.999 -2.499 -2.999 -3.249 
6.249 5.999 5.499 4.999 4.499 4 3.5 3 2.5 2 1.5 0.9997 0.4998 0.0002316 -0.4993 -0.9992 -1.499 -1.999 -2.499 -2.999 -3.249 
6.249 5.999 5.499 4.999 4.499 4 3.5 3 2.5 2 1.5 0.9997 0.4998 0.0002316 -0.4993 -0.9992 -1.499 -1.999 -2.499 -2.999 -3.249 
6.249 5.999 5.499 4.999 4.499 4 3.5 3 2.5 2 1.5 0.9997 0.4998 0.0002316 -0.4993 -0.9992 -1.499 -1.999 -2.499 -2.999 -3.249 
6.249 5.999 5.499 4.999 4.499 4 3.5 3 2.5 2 1.5 0.9997 0.4998 0.0002316 -0.4993 -0.9992 -1.499 -1.999 -2.499 -2.999 -3.249 
6.249 5.999 5.499 4.999 4.499 4 3.5 3 2.5 2 1.5 0.9997 0.4998 0.0002316 -0.4993 -0.9992 -1.499 -1.999 -2.499 -2.999 -3.249 
</DataArray>
<DataArray Name="ne" NumberOfComponents="1" format="ascii" type="Float64">
6.924e-05 6.92e-05 6.933e-05 6.94e-05 6.956e-05 6.975e-05 7.015e-05 7.061e-05 7.112e-05 7.172e-05 7.236e-05 7.21e-05 6.539e-05 0.00183 9.831e-05 7.334e-05 7.443e-05 7.428e-05 7.405e-05 7.38e-05 7.429e-05 
6.924e-05 6.92e-05 6.933e-05 6.94e-05 6.956e-05 6.975e-05 7.015e-05 7.061e-05 7.112e-05 7.172e-05 7.236e-05 7.21e-05 6.539e-05 0.00183 9.831e-05 7.334e-05 7.443e-05 7.428e-05 7.405e-05 7.38e-05 7.429e-05 
6.924e-05 6.92e-05 6.933e-05 6.94e-05 6.956e-05 6.975e-05 7.015e-05 7.061e-05 7.112e-05 7.172e-05 7.236e-05 7.21e-05 6.539e-05 0.00183 9.831e-05 7.334e-05 7.443e-05 7.428e-05 7.405e-05 7.38e-05 7.429e-05 
6.924e-05 6.92e-05 6.933e-05 6.94e-05 6.956e-05 6.975e-05 7.015e-05 7.061e-05 7.112e-05 7.172e-05 7.236e-05 7.21e-05 6.539e-05 0.00183 9.831e-05 7.334e-05 7.443e-05 7.428e-05 7.405e-05 7.38e-05 7.429e-05 
6.924e-05 6.92e-05 6.933e-05 6.94e-05 6.956e-05 6.975e-05 7.015e-05 7.061e-05 7.112e-05 7.172e-05 7.236e-05 7.21e-05 6.539e-05 0.00183 9.831e-05 7.334e-05 7.443e-05 7.428e-05 7.405e-05 7.38e-05 7.429e-05 
6.924e-05 6.92e-05 6.933e-05 6.94e-05 6.956e-05 6.975e-05 7.015e-05 7.061e-05 7.112e-05 7.172e-05 7.236e-05 7.21e-05 6.539e-05 0.00183 9.831e-05 7.334e-05 7.443e-05 7.428e-05 7.405e-05 7.38e-05 7.429e-05 
6.924e-05 6.92e-05 6.933e-05 6.94e-05 6.956e-05 6.975e-05 7.015e-05 7.061e-05 7.112e-05 7.172e-05 7.236e-05 7.21e-05 6.539e-05 0.00183 9.831e-05 7.334e-05 7.443e-05 7.428e-05 7.405e-05 7.38e-05 7.429e-05 
6.924e-05 6.92e-05 6.933e-05 6.94e-05 6.956e-05 6.975e-05 7.015e-05 7.061e-05 7.112e-05 7.172e-05 7.236e-05 7.21e-05 6.539e-05 0.00183 9.831e-05 7.334e-05 7.443e-05 7.428e-05 7.405e-05 7.38e-05 7.429e-05 
6.924e-05 6.92e-05 6.933e-05 6.94e-05 6.956e-05 6.975e-05 7.015e-05 7.061e-05 7.112e-05 7.172e-05 7.236e-05 7.21e-05 6.539e-05 0.00183 9.831e-05 7.334e-05 7.443e-05 7.428e-05 7.405e-05 7.38e-05 7.429e-05 
6.924e-05 6.92e-05 6.933e-05 6.94e-05 6.956e-05 6.975e-05 7.015e-05 7.061e-05 7.112e-05 7.172e-05 7.236e-05 7.21e-05 6.539e-05 0.00183 9.831e-05 7.334e-05 7.443e-05 7.428e-05 7.405e-05 7.38e-05 7.429e-05 
6.924e-05 6.92e-05 6.933e-05 6.94e-05 6.956e-05 6.975e-05 7.015e-05 7.061e-05 7.112e-05 7.172e-05 7.236e-05 7.21e-05 6.539e-05 0.00183 9.831e-05 7.334e-05 7.443e-05 7.428e-05 7.405e-05 7.38e-05 7.429e-05 
6.924e-05 6.92e-05 6.933e-05 6.94e-05 6.956e-05 6.975e-05 7.015e-05 7.061e-05 7.112e-05 7.172e-05 7.236e-05 7.21e-05 6.539e-05 0.00183 9.831e-05 7.334e-05 7.443e-05 7.428e-05 7.405e-05 7.38e-05 7.429e-05 
6.924e-05 6.92e-05 6.933e-05 6.94e-05 6.956e-05 6.975e-05 7.015e-05 7.061e-05 7.112e-05 7.172e-05 7.236e-05 7.21e-05 6.539e-05 0.00183 9.831e-05 7.334e-05 7.443e-05 7.428e-05 7.405e-05 7.38e-05 7.429e-05 
6.924e-05 6.92e-05 6.933e-05 6.94e-05 6.956e-05 6.975e-05 7.015e-05 7.061e-05 7.112e-05 7.172e-05 7.236e-05 7.21e-05 6.539e-05 0.00183 9.831e-05 7.334e-05 7.443e-05 7.428e-05 7.405e-05 7.38e-05 7.429e-05 
6.924e-05 6.92e-05 6.933e-05 6.94e-05 6.956e-05 6.975e-05 7.015e-05 7.061e-05 7.112e-05 7.172e-05 7.236e-05 7.21e-05 6.539e-05 0.00183 9.831e-05 7.334e-05 7.443e-05 7.428e-05 7.405e-05 7.38e-05 7.429e-05 
6.924e-05 6.92e-05 6.933e-05 6.94e-05 6.956e-05 6.975e-05 7.015e-05 7.061e-05 7.112e-05 7.172e-05 7.236e-05 7.21e-05 6.539e-05 0.00183 9.831e-05 7.334e-05 7.443e-05 7.428e-05 7.405e-05 7.38e-05 7.429e-05 
6.924e-05 6.92e-05 6.933e-05 6.94e-05 6.956e-05 6.975e-05 7.015e-05 7.061e-05 7.112e-05 7.172e-05 7.236e-05 7.21e-05 6.539e-05 0.00183 9.831e-05 7.334e-05 7.443e-05 7.428e-05 7.405e-05 7.38e-05 7.429e-05 
6.924e-05 6.92e-05 6.933e-05 6.94e-05 6.956e-05 6.975e-05 7.015e-05 7.061e-05 7.112e-05 7.172e-05 7.236e-05 7.21e-05 6.539e-05 0.00183 9.831e-05 7.334e-05 7.443e-05 7.428e-05 7.405e-05 7.38e-05 7.429e-05 
6.924e-05 6.92e-05 6.933e-05 6.94e-05 6.956e-05 6.975e-05 7.015e-05 7.061e-05 7.112e-05 7.172e-05 7.236e-05 7.21e-05 6.539e-05 0.00183 9.831e-05 7.334e-05 7.443e-05 7.428e-05 7.405e-05 7.38e-05 7.429e-05 
6.924e-05 6.92e-05 6.933e-05 6.94e-05 6.956e-05 6.975e-05 7.015e-05 7.061e-05 7.112e-05 7.172e-05 7.236e-05 7.21e-05 6.539e-05 0.00183 9.831e-05 7.334e-05 7.443e-05 7.428e-05 7.405e-05 7.38e-05 7.429e-05 
6.924e-05 6.92e-05 6.933e-05 6.94e-05 6.956e-05 6.975e-05 7.015e-05 7.061e-05 7.112e-05 7.172e-05 7.236e-05 7.21e-05 6.539e-05 0.00183 9.831e-05 7.334e-05 7.443e-05 7.428e-05 7.405e-05 7.38e-05 7.429e-05 
6.924e-05 6.92e-05 6.933e-05 6.94e-05 6.956e-05 6.975e-05 7.015e-05 7.061e-05 7.112e-05 7.172e-05 7.236e-05 7.21e-05 6.539e-05 0.00183 9.831e-05 7.334e-05 7.443e-05 7.428e-05 7.405e-05 7.38e-05 7.429e-05 
6.924e-05 6.92e-05 6.933e-05 6.94e-05 6.956e-05 6.975e-05 7.015e-05 7.061e-05 7.112e-05 7.172e-05 7.236e-05 7.21e-05 6.539e-05 0.00183 9.831e-05 7.334e-05 7.443e-05 7.428e-05 7.405e-05 7.38e-05 7.429e-05 
6.924e-05 6.92e-05 6.933e-05 6.94e-05 6.956e-05 6.975e-05 7.015e-05 7.061e-05 7.112e-05 7.172e-05 7.236e-05 7.21e-05 6.539e-05 0.00183 9.831e-05 7.334e-05 7.443e-05 7.428e-05 7.405e-05 7.38e-05 7.429e-05 
6.924e-05 6.92e-05 6.933e-05 6.94e-05 6.956e-05 6.975e-05 7.015e-05 7.061e-05 7.112e-05 7.172e-05 7.236e-05 7.21e-05 6.539e-05 0.00183 9.831e-05 7.334e-05 7.443e-05 7.428e-05 7.405e-05 7.38e-05 7.429e-05 
6.924e-05 6.92e-05 6.933e-05 6.94e-05 6.956e-05 6.975e-05 7.015e-05 7.061e-05 7.112e-05 7.172e-05 7.236e-05 7.21e-05 6.539e-05 0.00183 9.831e-05 7.334e-05 7.443e-05 7.428e-05 7.405e-05 7.38e-05 7.429e-05 
6.924e-05 6.92e-05 6.933e-05 6.94e-05 6.956e-05 6.975e-05 7.015e-05 7.061e-05 7.112e-05 7.172e-05 7.236e-05 7.21e-05 6.539e-05 0.00183 9.831e-05 7.334e-05 7.443e-05 7.428e-05 7.405e-05 7.38e-05 7.429e-05 
6.924e-05 6.92e-05 6.933e-05 6.94e-05 6.956e-05 6.975e-05 7.015e-05 7.061e-05 7.112e-05 7.172e-05 7.236e-05 7.21e-05 6.539e-05 0.00183 9.831e-05 7.334e-05 7.443e-05 7.428e-05 7.405e-05 7.38e-05 7.429e-05 
6.924e-05 6.92e-05 6.933e-05 6.94e-05 6.956e-05 6.975e-05 7.015e-05 7.061e-05 7.112e-05 7.172e-05 7.236e-05 7.21e-05 6.539e-05 0.00183 9.831e-05 7.334e-05 7.443e-05 7.428e-05 7.405e-05 7.38e-05 7.429e-05 
6.924e-05 6.92e-05 6.933e-05 6.94e-05 6.956e-05 6.975e-05 7.015e-05 7.061e-05 7.112e-05 7.172e-05 7.236e-05 7.21e-05 6.539e-05 0.00183 9.831e-05 7.334e-05 7.443e-05 7.428e-05 7.405e-05 7.38e-05 7.429e-05 
6.924e-05 6.92e-05 6.933e-05 6.94e-05 6.956e-05 6.975e-05 7.015e-05 7.061e-05 7.112e-05 7.172e-05 7.236e-05 7.21e-05 6.539e-05 0.00183 9.831e-05 7.334e-05 7.443e-05 7.428e-05 7.405e-05 7.38e-05 7.429e-05 
6.924e-05 6.92e-05 6.933e-05 6.94e-05 6.956e-05 6.975e-05 7.015e-05 7.061e-05 7.112e-05 7.172e-05 7.236e-05 7.21e-05 6.539e-05 0.00183 9.831e-05 7.334e-05 7.443e-05 7.428e-05 7.405e-05 7.38e-05 7.429e-05 
6.924e-05 6.92e-05 6.933e-05 6.94e-05 6.956e-05 6.975e-05 7.015e-05 7.061e-05 7.112e-05 7.172e-05 7.236e-05 7.21e-05 6.539e-05 0.00183 9.831e-05 7.334e-05 7.443e-05 7.428e-05 7.405e-05 7.38e-05 7.429e-05 
6.924e-05 6.92e-05 6.933e-05 6.94e-05 6.956e-05 6.975e-05 7.015e-05 7.061e-05 7.112e-05 7.172e-05 7.236e-05 7.21e-05 6.539e-05 0.00183 9.831e-05 7.334e-05 7.443e-05 7.428e-05 7.405e-05 7.38e-05 7.429e-05 
6.924e-05 6.92e-05 6.933e-05 6.94e-05 6.956e-05 6.975e-05 7.015e-05 7.061e-05 7.112e-05 7.172e-05 7.236e-05 7.21e-05 6.539e-05 0.00183 9.831e-05 7.334e-05 7.443e-05 7.428e-05 7.405e-05 7.38e-05 7.429e-05 
6.924e-05 6.92e-05 6.933e-05 6.94e-05 6.956e-05 6.975e-05 7.015e-05 7.061e-05 7.112e-05 7.172e-05 7.236e-05 7.21e-05 6.539e-05 0.00183 9.831e-05 7.334e-05 7.443e-05 7.428e-05 7.405e-05 7.38e-05 7.429e-05 
6.924e-05 6.92e-05 6.933e-05 6.94e-05 6.956e-05 6.975e-05 7.015e-05 7.061e-05 7.112e-05 7.172e-05 7.236e-05 7.21e-05 6.539e-05 0.00183 9.831e-05 7.334e-05 7.443e-05 7.428e-05 7.405e-05 7.38e-05 7.429e-05 
6.924e-05 6.92e-05 6.933e-05 6.94e-05 6.956e-05 6.975e-05 7.015e-05 7.061e-05 7.112e-05 7.172e-05 7.236e-05 7.21e-05 6.539e-05 0.00183 9.831e-05 7.334e-05 7.443e-05 7.428e-05 7.405e-05 7.38e-05 7.429e-05 
6.924e-05 6.92e-05 6.933e-05 6.94e-05 6.956e-05 6.975e-05 7.015e-05 7.061e-05 7.112e-05 7.172e-05 7.236e-05 7.21e-05 6.539e-05 0.00183 9.831e-05 7.334e-05 7.443e-05 7.428e-05 7.405e-05 7.38e-05 7.429e-05 
6.924e-05 6.92e-05 6.933e-05 6.94e-05 6.956e-05 6.975e-05 7.015e-05 7.061e-05 7.112e-05 7.172e-05 7.236e-05 7.21e-05 6.539e-05 0.00183 9.831e-05 7.334e-05 7.443e-05 7.428e-05 7.405e-05 7.38e-05 7.429e-05 
6.924e-05 6.92e-05 6.933e-05 6.94e-05 6.956e-05 6.975e-05 7.015e-05 7.061e-05 7.112e-05 7.172e-05 7.236e-05 7.21e-05 6.539e-05 0.00183 9.831e-05 7.334e-05 7.443e-05 7.428e-05 7.405e-05 7.38e-05 7.429e-05 
</DataArray>
</PointData>
</Piece>
</ImageData>
</VTKFile>
