<VTKFile type="ImageData">
<ImageData Origin="0 -10 0" Spacing="0.5 0.5 1" WholeExtent="0 20 0 40 0 0">
<Piece Extent="0 20 0 40 0 0">
<PointData>
<DataArray Name="f" NumberOfComponents="1" format="ascii" type="Float64">
1.631e-09 2.919e-11 1.711e-15 4.462e-18 0 0 0 0 0 0 0 0 0 0 0 0 0 0 0 0 0 
3.866e-07 9.506e-09 7.256e-12 7.262e-14 6.971e-20 0 0 0 0 0 0 0 0 0 0 0 0 0 0 0 0 
9.085e-06 4.361e-07 4.084e-09 9.806e-11 8.106e-15 4.236e-17 6.875e-20 0 0 0 0 0 0 0 0 0 0 0 0 0 0 
0.000125 1.447e-05 8.698e-07 2.841e-08 3.106e-11 6.32e-13 7.58e-15 4.416e-17 8.013e-20 0 0 0 0 0 0 0 0 0 0 0 0 
0.0007046 0.000145 1.719e-05 1.107e-06 1.567e-08 7.686e-10 2.659e-11 6.101e-13 8.395e-15 5.734e-17 1.25e-19 0 0 0 0 0 0 0 0 0 0 
0.002211 0.0007888 0.0001778 2.465e-05 1.784e-06 1.055e-07 6.82e-09 3.142e-10 9.739e-12 1.848e-13 1.797e-15 5.902e-18 0 0 0 0 0 0 0 0 0 
0.004055 0.002288 0.0008486 0.0002032 2.924e-05 3.14e-06 3.077e-07 2.153e-08 1.017e-09 2.95e-11 4.401e-13 2.256e-15 9.708e-19 0 0 0 0 0 0 0 0 
0.004745 0.004077 0.002358 0.0009057 0.0002228 3.953e-05 5.631e-06 5.717e-07 3.923e-08 1.662e-09 3.668e-11 2.89e-13 2.258e-16 0 0 0 0 0 0 0 0 
0.00366 0.004709 0.004136 0.002451 0.0009609 0.0002647 5.41e-05 7.853e-06 7.712e-07 4.707e-08 1.524e-09 1.842e-11 2.624e-14 0 0 0 0 0 0 0 0 
0.001869 0.003585 0.004725 0.00423 0.002546 0.001054 0.0003091 6.398e-05 8.963e-06 7.863e-07 3.73e-08 6.934e-10 1.807e-12 0 0 0 0 0 0 0 0 
0.000621 0.001788 0.003535 0.004749 0.004317 0.002653 0.001124 0.0003332 6.682e-05 8.453e-06 5.899e-07 1.696e-08 8.099e-11 9.095e-19 0 0 0 0 0 0 0 
0.0001294 0.0005697 0.001709 0.003467 0.00476 0.004356 0.0027 0.001157 0.0003348 6.154e-05 6.367e-06 2.851e-07 2.502e-09 2.743e-16 0 0 0 0 0 0 0 
1.589e-05 0.0001108 0.0005174 0.001618 0.003402 0.004713 0.004356 0.002737 0.001156 0.0003122 4.842e-05 3.414e-06 5.52e-08 5.811e-14 1.021e-20 0 0 0 0 0 0 
1.043e-06 1.223e-05 9.29e-05 0.0004653 0.001543 0.003336 0.004713 0.004422 0.002771 0.001116 0.0002635 2.967e-05 8.884e-07 8.742e-12 3.675e-17 5.061e-20 0 0 0 0 0 
3.111e-08 6.859e-07 9.058e-06 7.768e-05 0.0004249 0.001506 0.003359 0.004817 0.00457 0.002802 0.001027 0.0001883 1.054e-05 9.342e-10 5.456e-14 1.319e-16 1.326e-19 0 0 0 0 
3.129e-10 1.631e-08 4.134e-07 6.835e-06 6.589e-05 0.0004141 0.001519 0.003425 0.005046 0.004828 0.002822 0.0008652 9.213e-05 6.998e-08 3.63e-11 1.457e-13 2.328e-16 1.055e-19 0 0 0 
5.472e-13 1.195e-10 6.658e-09 2.71e-07 5.046e-06 6.429e-05 0.0004084 0.001497 0.003533 0.005449 0.005256 0.002799 0.0005865 3.56e-06 1.116e-08 7.268e-11 1.835e-13 1.305e-16 1.475e-20 0 0 
1.271e-16 9.243e-14 2.003e-11 3.62e-09 1.482e-07 4.987e-06 5.818e-05 0.0003611 0.00142 0.00368 0.006143 0.005995 0.002627 0.0001149 1.559e-06 1.68e-08 6.84e-11 7.774e-14 1.409e-17 0 0 
0 0 9.338e-15 5.93e-12 9.568e-10 1.532e-07 3.467e-06 3.845e-05 0.0002671 0.001239 0.003836 0.007434 0.00753 0.00203 9.273e-05 1.781e-06 1.235e-08 2.338e-11 7.029e-15 1.04e-19 0 
0 0 0 0 1.38e-12 8.033e-10 3.909e-08 9.062e-07 1.308e-05 0.0001271 0.0008446 0.003748 0.01025 0.01372 0.002086 8.417e-05 1.09e-06 3.657e-09 1.92e-12 5.038e-17 0 
0 0 0 0 0 0 0 2.143e-18 3.153e-14 4.204e-11 1.336e-08 1.621e-06 9.91e-05 0.003692 0.01431 0.001728 4.802e-05 3.075e-07 2.966e-10 1.484e-14 2.679e-18 
0 0 0 0 0 0 0 0 1.247e-16 2.285e-13 9.826e-11 1.591e-08 1.273e-06 6.009e-05 0.01042 0.007072 0.002174 0.0004171 5.337e-05 4.501e-06 2.787e-07 
0 0 0 0 0 0 0 0 2.899e-19 7.161e-16 4.1e-13 8.765e-11 9.162e-09 5.563e-07 0.003627 0.007113 0.005358 0.002259 0.0006019 0.000104 1.291e-05 
0 0 0 0 0 0 0 0 0 1.198e-18 8.985e-16 2.502e-13 3.387e-11 2.645e-09 0.0007665 0.003669 0.005686 0.004564 0.00222 0.0006891 0.0001502 
0 0 0 0 0 0 0 0 0 0 9.446e-19 3.381e-16 5.864e-14 5.845e-12 0.0001082 0.001188 0.003482 0.004938 0.004108 0.002156 0.0007798 
0 0 0 0 0 0 0 0 0 0 0 1.947e-19 4.285e-17 5.406e-15 1.068e-05 0.0002635 0.001388 0.00331 0.004501 0.003829 0.002209 
0 0 0 0 0 0 0 0 0 0 0 0 1.168e-20 1.853e-18 7.546e-07 4.168e-05 0.0003814 0.001478 0.003177 0.004238 0.003773 
0 0 0 0 0 0 0 0 0 0 0 0 0 0 3.843e-08 4.782e-06 7.431e-05 0.0004562 0.001511 0.003079 0.004117 
0 0 0 0 0 0 0 0 0 0 0 0 0 0 1.407e-09 3.981e-07 1.035e-05 9.874e-05 0.000494 0.001507 0.002962 
0 0 0 0 0 0 0 0 0 0 0 0 0 0 3.653e-11 2.376e-08 1.023e-06 1.496e-05 0.0001114 0.0005006 0.001423 
0 0 0 0 0 0 0 0 0 0 0 0 0 0 6.565e-13 9.913e-10 7.024e-08 1.56e-06 1.712e-05 0.0001119 0.0004544 
0 0 0 0 0 0 0 0 0 0 0 0 0 0 7.856e-15 2.776e-11 3.23e-09 1.083e-07 1.737e-06 1.641e-05 9.443e-05 
0 0 0 0 0 0 0 0 0 0 0 0 0 0 5.892e-17 4.899e-13 9.363e-11 4.721e-09 1.105e-07 1.503e-06 1.223e-05 
0 0 0 0 0 0 0 0 0 0 0 0 0 0 2.513e-19 4.926e-15 1.55e-12 1.177e-10 4.024e-09 7.904e-08 9.158e-07 
0 0 0 0 0 0 0 0 0 0 0 0 0 0 0 2.359e-17 1.229e-14 1.415e-12 7.15e-11 2.056e-09 3.462e-08 
0 0 0 0 0 0 0 0 0 0 0 0 0 0 0 3.597e-20 3.135e-17 5.617e-15 4.367e-13 1.923e-11 4.999e-10 
0 0 0 0 0 0 0 0 0 0 0 0 0 0 0 0 0 6.069e-19 1.61e-16 1.772e-14 1.076e-12 
0 0 0 0 0 0 0 0 0 0 0 0 0 0 0 0 0 0 0 2.796e-19 9.306e-17 
0 0 0 0 0 0 0 0 0 0 0 0 0 0 0 0 0 0 0 0 0 
0 0 0 0 0 0 0 0 0 0 0 0 0 0 0 0 0 0 0 0 0 
0 0 0 0 0 0 0 0 0 0 0 0 0 0 0 0 0 0 0 0 0 
</DataArray>
<DataArray Name="E" NumberOfComponents="1" format="ascii" type="Float64">
6.201 5.954 5.459 4.963 4.468 3.973 3.478 2.983 2.488 1.993 1.498 1.004 0.5095 0.01494 -0.4783 -0.9714 -1.466 -1.961 -2.457 -2.952 -3.2 
6.201 5.954 5.459 4.963 4.468 3.973 3.478 2.983 2.488 1.993 1.498 1.004 0.5095 0.01494 -0.4783 -0.9714 -1.466 -1.961 -2.457 -2.952 -3.2 
6.201 5.954 5.459 4.963 4.468 3.973 3.478 2.983 2.488 1.993 1.498 1.004 0.5095 0.01494 -0.4783 -0.9714 -1.466 -1.961 -2.457 -2.952 -3.2 
6.201 5.954 5.459 4.963 4.468 3.973 3.478 2.983 2.488 1.993 1.498 1.004 0.5095 0.01494 -0.4783 -0.9714 -1.466 -1.961 -2.457 -2.952 -3.2 
6.201 5.954 5.459 4.963 4.468 3.973 3.478 2.983 2.488 1.993 1.498 1.004 0.5095 0.01494 -0.4783 -0.9714 -1.466 -1.961 -2.457 -2.952 -3.2 
6.201 5.954 5.459 4.963 4.468 3.973 3.478 2.983 2.488 1.993 1.498 1.004 0.5095 0.01494 -0.4783 -0.9714 -1.466 -1.961 -2.457 -2.952 -3.2 
6.201 5.954 5.459 4.963 4.468 3.973 3.478 2.983 2.488 1.993 1.498 1.004 0.5095 0.01494 -0.4783 -0.9714 -1.466 -1.961 -2.457 -2.952 -3.2 
6.201 5.954 5.459 4.963 4.468 3.973 3.478 2.983 2.488 1.993 1.498 1.004 0.5095 0.01494 -0.4783 -0.9714 -1.466 -1.961 -2.457 -2.952 -3.2 
6.201 5.954 5.459 4.963 4.468 3.973 3.478 2.983 2.488 1.993 1.498 1.004 0.5095 0.01494 -0.4783 -0.9714 -1.466 -1.961 -2.457 -2.952 -3.2 
6.201 5.954 5.459 4.963 4.468 3.973 3.478 2.983 2.488 1.993 1.498 1.004 0.5095 0.01494 -0.4783 -0.9714 -1.466 -1.961 -2.457 -2.952 -3.2 
6.201 5.954 5.459 4.963 4.468 3.973 3.478 2.983 2.488 1.993 1.498 1.004 0.5095 0.01494 -0.4783 -0.9714 -1.466 -1.961 -2.457 -2.952 -3.2 
6.201 5.954 5.459 4.963 4.468 3.973 3.478 2.983 2.488 1.993 1.498 1.004 0.5095 0.01494 -0.4783 -0.9714 -1.466 -1.961 -2.457 -2.952 -3.2 
6.201 5.954 5.459 4.963 4.468 3.973 3.478 2.983 2.488 1.993 1.498 1.004 0.5095 0.01494 -0.4783 -0.9714 -1.466 -1.961 -2.457 -2.952 -3.2 
6.201 5.954 5.459 4.963 4.468 3.973 3.478 2.983 2.488 1.993 1.498 1.004 0.5095 0.01494 -0.4783 -0.9714 -1.466 -1.961 -2.457 -2.952 -3.2 
6.201 5.954 5.459 4.963 4.468 3.973 3.478 2.983 2.488 1.993 1.498 1.004 0.5095 0.01494 -0.4783 -0.9714 -1.466 -1.961 -2.457 -2.952 -3.2 
6.201 5.954 5.459 4.963 4.468 3.973 3.478 2.983 2.488 1.993 1.498 1.004 0.5095 0.01494 -0.4783 -0.9714 -1.466 -1.961 -2.457 -2.952 -3.2 
6.201 5.954 5.459 4.963 4.468 3.973 3.478 2.983 2.488 1.993 1.498 1.004 0.5095 0.01494 -0.4783 -0.9714 -1.466 -1.961 -2.457 -2.952 -3.2 
6.201 5.954 5.459 4.963 4.468 3.973 3.478 2.983 2.488 1.993 1.498 1.004 0.5095 0.01494 -0.4783 -0.9714 -1.466 -1.961 -2.457 -2.952 -3.2 
6.201 5.954 5.459 4.963 4.468 3.973 3.478 2.983 2.488 1.993 1.498 1.004 0.5095 0.01494 -0.4783 -0.9714 -1.466 -1.961 -2.457 -2.952 -3.2 
6.201 5.954 5.459 4.963 4.468 3.973 3.478 2.983 2.488 1.993 1.498 1.004 0.5095 0.01494 -0.4783 -0.9714 -1.466 -1.961 -2.457 -2.952 -3.2 
6.201 5.954 5.459 4.963 4.468 3.973 3.478 2.983 2.488 1.993 1.498 1.004 0.5095 0.01494 -0.4783 -0.9714 -1.466 -1.961 -2.457 -2.952 -3.2 
6.201 5.954 5.459 4.963 4.468 3.973 3.478 2.983 2.488 1.993 1.498 1.004 0.5095 0.01494 -0.4783 -0.9714 -1.466 -1.961 -2.457 -2.952 -3.2 
6.201 5.954 5.459 4.963 4.468 3.973 3.478 2.983 2.488 1.993 1.498 1.004 0.5095 0.01494 -0.4783 -0.9714 -1.466 -1.961 -2.457 -2.952 -3.2 
6.201 5.954 5.459 4.963 4.468 3.973 3.478 2.983 2.488 1.993 1.498 1.004 0.5095 0.01494 -0.4783 -0.9714 -1.466 -1.961 -2.457 -2.952 -3.2 
6.201 5.954 5.459 4.963 4.468 3.973 3.478 2.983 2.488 1.993 1.498 1.004 0.5095 0.01494 -0.4783 -0.9714 -1.466 -1.961 -2.457 -2.952 -3.2 
6.201 5.954 5.459 4.963 4.468 3.973 3.478 2.983 2.488 1.993 1.498 1.004 0.5095 0.01494 -0.4783 -0.9714 -1.466 -1.961 -2.457 -2.952 -3.2 
6.201 5.954 5.459 4.963 4.468 3.973 3.478 2.983 2.488 1.993 1.498 1.004 0.5095 0.01494 -0.4783 -0.9714 -1.466 -1.961 -2.457 -2.952 -3.2 
6.201 5.954 5.459 4.963 4.468 3.973 3.478 2.983 2.488 1.993 1.498 1.004 0.5095 0.01494 -0.4783 -0.9714 -1.466 -1.961 -2.457 -2.952 -3.2 
6.201 5.954 5.459 4.963 4.468 3.973 3.478 2.983 2.488 1.993 1.498 1.004 0.5095 0.01494 -0.4783 -0.9714 -1.466 -1.961 -2.457 -2.952 -3.2 
6.201 5.954 5.459 4.963 4.468 3.973 3.478 2.983 2.488 1.993 1.498 1.004 0.5095 0.01494 -0.4783 -0.9714 -1.466 -1.961 -2.457 -2.952 -3.2 
6.201 5.954 5.459 4.963 4.468 3.973 3.478 2.983 2.488 1.993 1.498 1.004 0.5095 0.01494 -0.4783 -0.9714 -1.466 -1.961 -2.457 -2.952 -3.2 
6.201 5.954 5.459 4.963 4.468 3.973 3.478 2.983 2.488 1.993 1.498 1.004 0.5095 0.01494 -0.4783 -0.9714 -1.466 -1.961 -2.457 -2.952 -3.2 
6.201 5.954 5.459 4.963 4.468 3.973 3.478 2.983 2.488 1.993 1.498 1.004 0.5095 0.01494 -0.4783 -0.9714 -1.466 -1.961 -2.457 -2.952 -3.2 
6.201 5.954 5.459 4.963 4.468 3.973 3.478 2.983 2.488 1.993 1.498 1.004 0.5095 0.01494 -0.4783 -0.9714 -1.466 -1.961 -2.457 -2.952 -3.2 
6.201 5.954 5.459 4.963 4.468 3.973 3.478 2.983 2.488 1.993 1.498 1.004 0.5095 0.01494 -0.4783 -0.9714 -1.466 -1.961 -2.457 -2.952 -3.2 
6.201 5.954 5.459 4.963 4.468 3.973 3.478 2.983 2.488 1.993 1.498 1.004 0.5095 0.01494 -0.4783 -0.9714 -1.466 -1.961 -2.457 -2.952 -3.2 
6.201 5.954 5.459 4.963 4.468 3.973 3.478 2.983 2.488 1.993 1.498 1.004 0.5095 0.01494 -0.4783 -0.9714 -1.466 -1.961 -2.457 -2.952 -3.2 
6.201 5.954 5.459 4.963 4.468 3.973 3.478 2.983 2.488 1.993 1.498 1.004 0.5095 0.01494 -0.4783 -0.9714 -1.466 -1.961 -2.457 -2.952 -3.2 
6.201 5.954 5.459 4.963 4.468 3.973 3.478 2.983 2.488 1.993 1.498 1.004 0.5095 0.01494 -0.4783 -0.9714 -1.466 -1.961 -2.457 -2.952 -3.2 
6.201 5.954 5.459 4.963 4.468 3.973 3.478 2.983 2.488 1.993 1.498 1.004 0.5095 0.01494 -0.4783 -0.9714 -1.466 -1.961 -2.457 -2.952 -3.2 
6.201 5.954 5.459 4.963 4.468 3.973 3.478 2.983 2.488 1.993 1.498 1.004 0.5095 0.01494 -0.4783 -0.9714 -1.466 -1.961 -2.457 -2.952 -3.2 
</DataArray>
<DataArray Name="ne" NumberOfComponents="1" format="ascii" type="Float64">
0.009629 0.009626 0.009654 0.009681 0.009728 0.00979 0.009892 0.01002 0.01019 0.01041 0.01073 0.01115 0.01124 0.01035 0.0165 0.01122 0.009832 0.009273 0.008882 0.008587 0.008444 
0.009629 0.009626 0.009654 0.009681 0.009728 0.00979 0.009892 0.01002 0.01019 0.01041 0.01073 0.01115 0.01124 0.01035 0.0165 0.01122 0.009832 0.009273 0.008882 0.008587 0.008444 
0.009629 0.009626 0.009654 0.009681 0.009728 0.00979 0.009892 0.01002 0.01019 0.01041 0.01073 0.01115 0.01124 0.01035 0.0165 0.01122 0.009832 0.009273 0.008882 0.008587 0.008444 
0.009629 0.009626 0.009654 0.009681 0.009728 0.00979 0.009892 0.01002 0.01019 0.01041 0.01073 0.01115 0.01124 0.01035 0.0165 0.01122 0.009832 0.009273 0.008882 0.008587 0.008444 
0.009629 0.009626 0.009654 0.009681 0.009728 0.00979 0.009892 0.01002 0.01019 0.01041 0.01073 0.01115 0.01124 0.01035 0.0165 0.01122 0.009832 0.009273 0.008882 0.008587 0.008444 
0.009629 0.009626 0.009654 0.009681 0.009728 0.00979 0.009892 0.01002 0.01019 0.01041 0.01073 0.01115 0.01124 0.01035 0.0165 0.01122 0.009832 0.009273 0.008882 0.008587 0.008444 
0.009629 0.009626 0.009654 0.009681 0.009728 0.00979 0.009892 0.01002 0.01019 0.01041 0.01073 0.01115 0.01124 0.01035 0.0165 0.01122 0.009832 0.009273 0.008882 0.008587 0.008444 
0.009629 0.009626 0.009654 0.009681 0.009728 0.00979 0.009892 0.01002 0.01019 0.01041 0.01073 0.01115 0.01124 0.01035 0.0165 0.01122 0.009832 0.009273 0.008882 0.008587 0.008444 
0.009629 0.009626 0.009654 0.009681 0.009728 0.00979 0.009892 0.01002 0.01019 0.01041 0.01073 0.01115 0.01124 0.01035 0.0165 0.01122 0.009832 0.009273 0.008882 0.008587 0.008444 
0.009629 0.009626 0.009654 0.009681 0.009728 0.00979 0.009892 0.01002 0.01019 0.01041 0.01073 0.01115 0.01124 0.01035 0.0165 0.01122 0.009832 0.009273 0.008882 0.008587 0.008444 
0.009629 0.009626 0.009654 0.009681 0.009728 0.00979 0.009892 0.01002 0.01019 0.01041 0.01073 0.01115 0.01124 0.01035 0.0165 0.01122 0.009832 0.009273 0.008882 0.008587 0.008444 
0.009629 0.009626 0.009654 0.009681 0.009728 0.00979 0.009892 0.01002 0.01019 0.01041 0.01073 0.01115 0.01124 0.01035 0.0165 0.01122 0.009832 0.009273 0.008882 0.008587 0.008444 
0.009629 0.009626 0.009654 0.009681 0.009728 0.00979 0.009892 0.01002 0.01019 0.01041 0.01073 0.01115 0.01124 0.01035 0.0165 0.01122 0.009832 0.009273 0.008882 0.008587 0.008444 
0.009629 0.009626 0.009654 0.009681 0.009728 0.00979 0.009892 0.01002 0.01019 0.01041 0.01073 0.01115 0.01124 0.01035 0.0165 0.01122 0.009832 0.009273 0.008882 0.008587 0.008444 
0.009629 0.009626 0.009654 0.009681 0.009728 0.00979 0.009892 0.01002 0.01019 0.01041 0.01073 0.01115 0.01124 0.01035 0.0165 0.01122 0.009832 0.009273 0.008882 0.008587 0.008444 
0.009629 0.009626 0.009654 0.009681 0.009728 0.00979 0.009892 0.01002 0.01019 0.01041 0.01073 0.01115 0.01124 0.01035 0.0165 0.01122 0.009832 0.009273 0.008882 0.008587 0.008444 
0.009629 0.009626 0.009654 0.009681 0.009728 0.00979 0.009892 0.01002 0.01019 0.01041 0.01073 0.01115 0.01124 0.01035 0.0165 0.01122 0.009832 0.009273 0.008882 0.008587 0.008444 
0.009629 0.009626 0.009654 0.009681 0.009728 0.00979 0.009892 0.01002 0.01019 0.01041 0.01073 0.01115 0.01124 0.01035 0.0165 0.01122 0.009832 0.009273 0.008882 0.008587 0.008444 
0.009629 0.009626 0.009654 0.009681 0.009728 0.00979 0.009892 0.01002 0.01019 0.01041 0.01073 0.01115 0.01124 0.01035 0.0165 0.01122 0.009832 0.009273 0.008882 0.008587 0.008444 
0.009629 0.009626 0.009654 0.009681 0.009728 0.00979 0.009892 0.01002 0.01019 0.01041 0.01073 0.01115 0.01124 0.01035 0.0165 0.01122 0.009832 0.009273 0.008882 0.008587 0.008444 
0.009629 0.009626 0.009654 0.009681 0.009728 0.00979 0.009892 0.01002 0.01019 0.01041 0.01073 0.01115 0.01124 0.01035 0.0165 0.01122 0.009832 0.009273 0.008882 0.008587 0.008444 
0.009629 0.009626 0.009654 0.009681 0.009728 0.00979 0.009892 0.01002 0.01019 0.01041 0.01073 0.01115 0.01124 0.01035 0.0165 0.01122 0.009832 0.009273 0.008882 0.008587 0.008444 
0.009629 0.009626 0.009654 0.009681 0.009728 0.00979 0.009892 0.01002 0.01019 0.01041 0.01073 0.01115 0.01124 0.01035 0.0165 0.01122 0.009832 0.009273 0.008882 0.008587 0.008444 
0.009629 0.009626 0.009654 0.009681 0.009728 0.00979 0.009892 0.01002 0.01019 0.01041 0.01073 0.01115 0.01124 0.01035 0.0165 0.01122 0.009832 0.009273 0.008882 0.008587 0.008444 
0.009629 0.009626 0.009654 0.009681 0.009728 0.00979 0.009892 0.01002 0.01019 0.01041 0.01073 0.01115 0.01124 0.01035 0.0165 0.01122 0.009832 0.009273 0.008882 0.008587 0.008444 
0.009629 0.009626 0.009654 0.009681 0.009728 0.00979 0.009892 0.01002 0.01019 0.01041 0.01073 0.01115 0.01124 0.01035 0.0165 0.01122 0.009832 0.009273 0.008882 0.008587 0.008444 
0.009629 0.009626 0.009654 0.009681 0.009728 0.00979 0.009892 0.01002 0.01019 0.01041 0.01073 0.01115 0.01124 0.01035 0.0165 0.01122 0.009832 0.009273 0.008882 0.008587 0.008444 
0.009629 0.009626 0.009654 0.009681 0.009728 0.00979 0.009892 0.01002 0.01019 0.01041 0.01073 0.01115 0.01124 0.01035 0.0165 0.01122 0.009832 0.009273 0.008882 0.008587 0.008444 
0.009629 0.009626 0.009654 0.009681 0.009728 0.00979 0.009892 0.01002 0.01019 0.01041 0.01073 0.01115 0.01124 0.01035 0.0165 0.01122 0.009832 0.009273 0.008882 0.008587 0.008444 
0.009629 0.009626 0.009654 0.009681 0.009728 0.00979 0.009892 0.01002 0.01019 0.01041 0.01073 0.01115 0.01124 0.01035 0.0165 0.01122 0.009832 0.009273 0.008882 0.008587 0.008444 
0.009629 0.009626 0.009654 0.009681 0.009728 0.00979 0.009892 0.01002 0.01019 0.01041 0.01073 0.01115 0.01124 0.01035 0.0165 0.01122 0.009832 0.009273 0.008882 0.008587 0.008444 
0.009629 0.009626 0.009654 0.009681 0.009728 0.00979 0.009892 0.01002 0.01019 0.01041 0.01073 0.01115 0.01124 0.01035 0.0165 0.01122 0.009832 0.009273 0.008882 0.008587 0.008444 
0.009629 0.009626 0.009654 0.009681 0.009728 0.00979 0.009892 0.01002 0.01019 0.01041 0.01073 0.01115 0.01124 0.01035 0.0165 0.01122 0.009832 0.009273 0.008882 0.008587 0.008444 
0.009629 0.009626 0.009654 0.009681 0.009728 0.00979 0.009892 0.01002 0.01019 0.01041 0.01073 0.01115 0.01124 0.01035 0.0165 0.01122 0.009832 0.009273 0.008882 0.008587 0.008444 
0.009629 0.009626 0.009654 0.009681 0.009728 0.00979 0.009892 0.01002 0.01019 0.01041 0.01073 0.01115 0.01124 0.01035 0.0165 0.01122 0.009832 0.009273 0.008882 0.008587 0.008444 
0.009629 0.009626 0.009654 0.009681 0.009728 0.00979 0.009892 0.01002 0.01019 0.01041 0.01073 0.01115 0.01124 0.01035 0.0165 0.01122 0.009832 0.009273 0.008882 0.008587 0.008444 
0.009629 0.009626 0.009654 0.009681 0.009728 0.00979 0.009892 0.01002 0.01019 0.01041 0.01073 0.01115 0.01124 0.01035 0.0165 0.01122 0.009832 0.009273 0.008882 0.008587 0.008444 
0.009629 0.009626 0.009654 0.009681 0.009728 0.00979 0.009892 0.01002 0.01019 0.01041 0.01073 0.01115 0.01124 0.01035 0.0165 0.01122 0.009832 0.009273 0.008882 0.008587 0.008444 
0.009629 0.009626 0.009654 0.009681 0.009728 0.00979 0.009892 0.01002 0.01019 0.01041 0.01073 0.01115 0.01124 0.01035 0.0165 0.01122 0.009832 0.009273 0.008882 0.008587 0.008444 
0.009629 0.009626 0.009654 0.009681 0.009728 0.00979 0.009892 0.01002 0.01019 0.01041 0.01073 0.01115 0.01124 0.01035 0.0165 0.01122 0.009832 0.009273 0.008882 0.008587 0.008444 
0.009629 0.009626 0.009654 0.009681 0.009728 0.00979 0.009892 0.01002 0.01019 0.01041 0.01073 0.01115 0.01124 0.01035 0.0165 0.01122 0.009832 0.009273 0.008882 0.008587 0.008444 
</DataArray>
</PointData>
</Piece>
</ImageData>
</VTKFile>
