<VTKFile type="ImageData">
<ImageData Origin="0 -10 0" Spacing="0.5 0.5 1" WholeExtent="0 20 0 40 0 0">
<Piece Extent="0 20 0 40 0 0">
<PointData>
<DataArray Name="f" NumberOfComponents="1" format="ascii" type="Float64">
0.08685 0.08621 0.08582 0.08547 0.08516 0.08488 0.08465 0.08446 0.08432 0.08421 0.08416 0.08414 0.08418 0.08425 0.08439 0.08458 0.08481 0.08514 0.08552 0.08582 0.08685 
0.1205 0.1198 0.1193 0.1189 0.1186 0.1182 0.118 0.1177 0.1176 0.1174 0.1174 0.1174 0.1174 0.1175 0.1177 0.1179 0.1182 0.1185 0.1191 0.1193 0.1205 
0.1557 0.155 0.1545 0.1541 0.1537 0.1534 0.1531 0.1529 0.1527 0.1526 0.1525 0.1525 0.1526 0.1526 0.1529 0.1529 0.1534 0.1536 0.1543 0.1544 0.1557 
0.1872 0.1866 0.1862 0.1859 0.1856 0.1853 0.1851 0.1848 0.1847 0.1845 0.1846 0.1844 0.1846 0.1845 0.1848 0.1848 0.1853 0.1853 0.1861 0.1861 0.1872 
0.2093 0.209 0.2088 0.2086 0.2084 0.2082 0.2081 0.2079 0.2079 0.2078 0.2078 0.2077 0.2078 0.2077 0.208 0.2079 0.2082 0.2082 0.2087 0.2087 0.2093 
0.2174 0.2174 0.2174 0.2175 0.2175 0.2175 0.2175 0.2175 0.2175 0.2175 0.2175 0.2175 0.2175 0.2175 0.2175 0.2175 0.2175 0.2175 0.2174 0.2174 0.2174 
0.2096 0.2099 0.2102 0.2105 0.2108 0.211 0.2112 0.2114 0.2115 0.2116 0.2117 0.2117 0.2117 0.2116 0.2115 0.2114 0.2111 0.211 0.2105 0.2104 0.2096 
0.1874 0.1879 0.1885 0.189 0.1894 0.1898 0.1902 0.1905 0.1908 0.191 0.1912 0.1912 0.1912 0.1912 0.191 0.1907 0.1903 0.19 0.1892 0.1888 0.1874 
0.1552 0.1558 0.1564 0.1571 0.1576 0.1582 0.1587 0.1591 0.1595 0.1598 0.16 0.1602 0.1602 0.1601 0.1599 0.1596 0.1591 0.1586 0.1576 0.157 0.1552 
0.1189 0.1194 0.1201 0.1207 0.1213 0.1219 0.1225 0.1229 0.1234 0.1238 0.124 0.1242 0.1243 0.1243 0.1241 0.1238 0.1232 0.1226 0.1216 0.1209 0.1189 
0.08418 0.08444 0.08504 0.08562 0.08619 0.08673 0.08724 0.08771 0.08814 0.08852 0.08882 0.08904 0.08917 0.08917 0.08904 0.08877 0.08831 0.08773 0.0868 0.08602 0.08418 
0.05496 0.05503 0.0555 0.05597 0.05642 0.05685 0.05727 0.05767 0.05803 0.05836 0.05865 0.05887 0.05902 0.05907 0.05901 0.05882 0.05847 0.05798 0.05723 0.0565 0.05496 
0.03304 0.03298 0.03331 0.03364 0.03396 0.03427 0.03457 0.03486 0.03514 0.03539 0.03562 0.03582 0.03596 0.03604 0.03604 0.03594 0.03571 0.03535 0.0348 0.03421 0.03304 
0.01826 0.01813 0.01834 0.01855 0.01875 0.01895 0.01914 0.01933 0.01952 0.01969 0.01985 0.02 0.02012 0.0202 0.02023 0.0202 0.02007 0.01985 0.01949 0.01906 0.01826 
0.00926 0.009124 0.009244 0.009361 0.009477 0.009591 0.009703 0.009812 0.009919 0.01002 0.01012 0.01021 0.0103 0.01036 0.0104 0.01041 0.01036 0.01024 0.01004 0.009762 0.00926 
0.004299 0.004191 0.004252 0.004313 0.004372 0.00443 0.004488 0.004545 0.0046 0.004655 0.004708 0.00476 0.004808 0.004851 0.004884 0.004902 0.004893 0.004845 0.004743 0.004586 0.004299 
0.001825 0.001752 0.00178 0.001808 0.001835 0.001862 0.001889 0.001915 0.001941 0.001967 0.001992 0.002017 0.002041 0.002064 0.002084 0.0021 0.002105 0.002093 0.002051 0.001974 0.001825 
0.0007066 0.0006643 0.0006758 0.0006873 0.0006987 0.0007099 0.000721 0.000732 0.0007429 0.0007536 0.0007642 0.0007747 0.0007851 0.0007953 0.0008051 0.000814 0.0008204 0.000821 0.0008094 0.0007775 0.0007066 
0.0002493 0.0002278 0.0002319 0.0002361 0.0002403 0.0002445 0.0002486 0.0002528 0.0002568 0.0002609 0.0002648 0.0002688 0.0002727 0.0002766 0.0002805 0.0002844 0.0002879 0.0002904 0.0002894 0.0002797 0.0002493 
7.995e-05 7.056e-05 7.168e-05 7.301e-05 7.439e-05 7.577e-05 7.715e-05 7.852e-05 7.988e-05 8.123e-05 8.257e-05 8.39e-05 8.522e-05 8.653e-05 8.785e-05 8.918e-05 9.053e-05 9.184e-05 9.275e-05 9.149e-05 7.995e-05 
2.317e-05 1.99e-05 1.996e-05 2.026e-05 2.064e-05 2.104e-05 2.144e-05 2.185e-05 2.225e-05 2.265e-05 2.305e-05 2.345e-05 2.385e-05 2.424e-05 2.463e-05 2.503e-05 2.544e-05 2.586e-05 2.629e-05 2.676e-05 2.317e-05 
5.991e-06 5.197e-06 5.036e-06 5.048e-06 5.119e-06 5.213e-06 5.314e-06 5.419e-06 5.524e-06 5.63e-06 5.735e-06 5.84e-06 5.945e-06 6.05e-06 6.154e-06 6.26e-06 6.368e-06 6.478e-06 6.594e-06 6.716e-06 5.991e-06 
1.365e-06 1.196e-06 1.14e-06 1.126e-06 1.132e-06 1.149e-06 1.169e-06 1.192e-06 1.216e-06 1.24e-06 1.265e-06 1.289e-06 1.313e-06 1.338e-06 1.362e-06 1.387e-06 1.412e-06 1.438e-06 1.465e-06 1.493e-06 1.365e-06 
2.733e-07 2.418e-07 2.291e-07 2.239e-07 2.232e-07 2.25e-07 2.283e-07 2.324e-07 2.369e-07 2.417e-07 2.465e-07 2.515e-07 2.564e-07 2.614e-07 2.664e-07 2.714e-07 2.766e-07 2.818e-07 2.873e-07 2.93e-07 2.733e-07 
5.164e-08 4.706e-08 4.506e-08 4.402e-08 4.369e-08 4.378e-08 4.415e-08 4.468e-08 4.531e-08 4.601e-08 4.674e-08 4.749e-08 4.825e-08 4.903e-08 4.981e-08 5.06e-08 5.141e-08 5.224e-08 5.31e-08 5.401e-08 5.164e-08 
2.789e-08 2.973e-08 3.069e-08 3.134e-08 3.169e-08 3.183e-08 3.181e-08 3.167e-08 3.144e-08 3.115e-08 3.081e-08 3.045e-08 3.007e-08 2.969e-08 2.93e-08 2.891e-08 2.852e-08 2.814e-08 2.776e-08 2.737e-08 2.789e-08 
9.558e-08 1.059e-07 1.11e-07 1.148e-07 1.169e-07 1.179e-07 1.18e-07 1.174e-07 1.162e-07 1.147e-07 1.13e-07 1.11e-07 1.09e-07 1.068e-07 1.046e-07 1.024e-07 1.001e-07 9.785e-08 9.556e-08 9.323e-08 9.558e-08 
3.987e-07 4.374e-07 4.561e-07 4.714e-07 4.804e-07 4.852e-07 4.865e-07 4.851e-07 4.815e-07 4.764e-07 4.7e-07 4.628e-07 4.55e-07 4.467e-07 4.382e-07 4.295e-07 4.206e-07 4.115e-07 4.024e-07 3.931e-07 3.987e-07 
1.55e-06 1.685e-06 1.746e-06 1.802e-06 1.835e-06 1.855e-06 1.862e-06 1.86e-06 1.851e-06 1.835e-06 1.814e-06 1.79e-06 1.763e-06 1.735e-06 1.705e-06 1.674e-06 1.642e-06 1.609e-06 1.576e-06 1.542e-06 1.55e-06 
5.578e-06 6.009e-06 6.191e-06 6.38e-06 6.489e-06 6.563e-06 6.595e-06 6.597e-06 6.573e-06 6.528e-06 6.467e-06 6.394e-06 6.31e-06 6.219e-06 6.122e-06 6.021e-06 5.917e-06 5.809e-06 5.698e-06 5.585e-06 5.578e-06 
1.859e-05 1.987e-05 2.036e-05 2.095e-05 2.127e-05 2.152e-05 2.163e-05 2.166e-05 2.161e-05 2.15e-05 2.133e-05 2.112e-05 2.088e-05 2.062e-05 2.033e-05 2.003e-05 1.971e-05 1.939e-05 1.905e-05 1.87e-05 1.859e-05 
5.742e-05 6.099e-05 6.215e-05 6.389e-05 6.471e-05 6.548e-05 6.579e-05 6.596e-05 6.584e-05 6.559e-05 6.517e-05 6.464e-05 6.401e-05 6.33e-05 6.252e-05 6.169e-05 6.082e-05 5.991e-05 5.896e-05 5.798e-05 5.742e-05 
0.0001646 0.0001739 0.0001763 0.0001811 0.0001828 0.0001851 0.0001858 0.0001865 0.0001862 0.0001858 0.0001847 0.0001835 0.0001819 0.0001802 0.0001783 0.0001762 0.000174 0.0001716 0.0001692 0.0001667 0.0001646 
0.0004385 0.0004606 0.0004648 0.0004772 0.0004802 0.0004866 0.0004876 0.0004901 0.0004891 0.0004889 0.0004862 0.000484 0.0004801 0.0004765 0.0004718 0.0004672 0.0004619 0.0004565 0.0004507 0.0004446 0.0004385 
0.001086 0.001134 0.00114 0.00117 0.001173 0.001191 0.00119 0.001199 0.001194 0.001197 0.001189 0.001187 0.001178 0.001171 0.001161 0.001152 0.00114 0.001128 0.001116 0.001102 0.001086 
0.002499 0.002598 0.002601 0.002672 0.002666 0.002713 0.002702 0.002729 0.002715 0.002725 0.002711 0.002707 0.002691 0.002679 0.002659 0.00264 0.002618 0.002593 0.002567 0.002538 0.002499 
0.005346 0.005541 0.005529 0.00567 0.005654 0.005744 0.00573 0.005776 0.005764 0.005778 0.005764 0.005755 0.005732 0.005706 0.005672 0.005634 0.005589 0.005541 0.005488 0.005432 0.005346 
0.01065 0.01098 0.01097 0.01119 0.01121 0.01133 0.01136 0.01141 0.01143 0.01144 0.01143 0.01141 0.01137 0.01131 0.01125 0.01117 0.01109 0.011 0.0109 0.0108 0.01065 
0.01974 0.02029 0.02033 0.02065 0.02077 0.02094 0.02105 0.02112 0.02115 0.02114 0.0211 0.02103 0.02094 0.02083 0.0207 0.02057 0.02042 0.02027 0.02012 0.01997 0.01974 
0.03425 0.03519 0.03538 0.0358 0.03609 0.03624 0.03633 0.03634 0.03629 0.03619 0.03605 0.0359 0.03572 0.03554 0.03535 0.03517 0.03499 0.03481 0.03464 0.03447 0.03425 
0.05612 0.0574 0.05772 0.05782 0.0579 0.05783 0.0577 0.05754 0.05735 0.05716 0.05697 0.05679 0.05662 0.05648 0.05635 0.05625 0.05617 0.05612 0.05608 0.05608 0.05612 
</DataArray>
<DataArray Name="E" NumberOfComponents="1" format="ascii" type="Float64">
1.644 1.635 1.617 1.6 1.584 1.568 1.553 1.538 1.524 1.51 1.497 1.483 1.47 1.457 1.444 1.431 1.418 1.404 1.389 1.373 1.364 
1.644 1.635 1.617 1.6 1.584 1.568 1.553 1.538 1.524 1.51 1.497 1.483 1.47 1.457 1.444 1.431 1.418 1.404 1.389 1.373 1.364 
1.644 1.635 1.617 1.6 1.584 1.568 1.553 1.538 1.524 1.51 1.497 1.483 1.47 1.457 1.444 1.431 1.418 1.404 1.389 1.373 1.364 
1.644 1.635 1.617 1.6 1.584 1.568 1.553 1.538 1.524 1.51 1.497 1.483 1.47 1.457 1.444 1.431 1.418 1.404 1.389 1.373 1.364 
1.644 1.635 1.617 1.6 1.584 1.568 1.553 1.538 1.524 1.51 1.497 1.483 1.47 1.457 1.444 1.431 1.418 1.404 1.389 1.373 1.364 
1.644 1.635 1.617 1.6 1.584 1.568 1.553 1.538 1.524 1.51 1.497 1.483 1.47 1.457 1.444 1.431 1.418 1.404 1.389 1.373 1.364 
1.644 1.635 1.617 1.6 1.584 1.568 1.553 1.538 1.524 1.51 1.497 1.483 1.47 1.457 1.444 1.431 1.418 1.404 1.389 1.373 1.364 
1.644 1.635 1.617 1.6 1.584 1.568 1.553 1.538 1.524 1.51 1.497 1.483 1.47 1.457 1.444 1.431 1.418 1.404 1.389 1.373 1.364 
1.644 1.635 1.617 1.6 1.584 1.568 1.553 1.538 1.524 1.51 1.497 1.483 1.47 1.457 1.444 1.431 1.418 1.404 1.389 1.373 1.364 
1.644 1.635 1.617 1.6 1.584 1.568 1.553 1.538 1.524 1.51 1.497 1.483 1.47 1.457 1.444 1.431 1.418 1.404 1.389 1.373 1.364 
1.644 1.635 1.617 1.6 1.584 1.568 1.553 1.538 1.524 1.51 1.497 1.483 1.47 1.457 1.444 1.431 1.418 1.404 1.389 1.373 1.364 
1.644 1.635 1.617 1.6 1.584 1.568 1.553 1.538 1.524 1.51 1.497 1.483 1.47 1.457 1.444 1.431 1.418 1.404 1.389 1.373 1.364 
1.644 1.635 1.617 1.6 1.584 1.568 1.553 1.538 1.524 1.51 1.497 1.483 1.47 1.457 1.444 1.431 1.418 1.404 1.389 1.373 1.364 
1.644 1.635 1.617 1.6 1.584 1.568 1.553 1.538 1.524 1.51 1.497 1.483 1.47 1.457 1.444 1.431 1.418 1.404 1.389 1.373 1.364 
1.644 1.635 1.617 1.6 1.584 1.568 1.553 1.538 1.524 1.51 1.497 1.483 1.47 1.457 1.444 1.431 1.418 1.404 1.389 1.373 1.364 
1.644 1.635 1.617 1.6 1.584 1.568 1.553 1.538 1.524 1.51 1.497 1.483 1.47 1.457 1.444 1.431 1.418 1.404 1.389 1.373 1.364 
1.644 1.635 1.617 1.6 1.584 1.568 1.553 1.538 1.524 1.51 1.497 1.483 1.47 1.457 1.444 1.431 1.418 1.404 1.389 1.373 1.364 
1.644 1.635 1.617 1.6 1.584 1.568 1.553 1.538 1.524 1.51 1.497 1.483 1.47 1.457 1.444 1.431 1.418 1.404 1.389 1.373 1.364 
1.644 1.635 1.617 1.6 1.584 1.568 1.553 1.538 1.524 1.51 1.497 1.483 1.47 1.457 1.444 1.431 1.418 1.404 1.389 1.373 1.364 
1.644 1.635 1.617 1.6 1.584 1.568 1.553 1.538 1.524 1.51 1.497 1.483 1.47 1.457 1.444 1.431 1.418 1.404 1.389 1.373 1.364 
1.644 1.635 1.617 1.6 1.584 1.568 1.553 1.538 1.524 1.51 1.497 1.483 1.47 1.457 1.444 1.431 1.418 1.404 1.389 1.373 1.364 
1.644 1.635 1.617 1.6 1.584 1.568 1.553 1.538 1.524 1.51 1.497 1.483 1.47 1.457 1.444 1.431 1.418 1.404 1.389 1.373 1.364 
1.644 1.635 1.617 1.6 1.584 1.568 1.553 1.538 1.524 1.51 1.497 1.483 1.47 1.457 1.444 1.431 1.418 1.404 1.389 1.373 1.364 
1.644 1.635 1.617 1.6 1.584 1.568 1.553 1.538 1.524 1.51 1.497 1.483 1.47 1.457 1.444 1.431 1.418 1.404 1.389 1.373 1.364 
1.644 1.635 1.617 1.6 1.584 1.568 1.553 1.538 1.524 1.51 1.497 1.483 1.47 1.457 1.444 1.431 1.418 1.404 1.389 1.373 1.364 
1.644 1.635 1.617 1.6 1.584 1.568 1.553 1.538 1.524 1.51 1.497 1.483 1.47 1.457 1.444 1.431 1.418 1.404 1.389 1.373 1.364 
1.644 1.635 1.617 1.6 1.584 1.568 1.553 1.538 1.524 1.51 1.497 1.483 1.47 1.457 1.444 1.431 1.418 1.404 1.389 1.373 1.364 
1.644 1.635 1.617 1.6 1.584 1.568 1.553 1.538 1.524 1.51 1.497 1.483 1.47 1.457 1.444 1.431 1.418 1.404 1.389 1.373 1.364 
1.644 1.635 1.617 1.6 1.584 1.568 1.553 1.538 1.524 1.51 1.497 1.483 1.47 1.457 1.444 1.431 1.418 1.404 1.389 1.373 1.364 
1.644 1.635 1.617 1.6 1.584 1.568 1.553 1.538 1.524 1.51 1.497 1.483 1.47 1.457 1.444 1.431 1.418 1.404 1.389 1.373 1.364 
1.644 1.635 1.617 1.6 1.584 1.568 1.553 1.538 1.524 1.51 1.497 1.483 1.47 1.457 1.444 1.431 1.418 1.404 1.389 1.373 1.364 
1.644 1.635 1.617 1.6 1.584 1.568 1.553 1.538 1.524 1.51 1.497 1.483 1.47 1.457 1.444 1.431 1.418 1.404 1.389 1.373 1.364 
1.644 1.635 1.617 1.6 1.584 1.568 1.553 1.538 1.524 1.51 1.497 1.483 1.47 1.457 1.444 1.431 1.418 1.404 1.389 1.373 1.364 
1.644 1.635 1.617 1.6 1.584 1.568 1.553 1.538 1.524 1.51 1.497 1.483 1.47 1.457 1.444 1.431 1.418 1.404 1.389 1.373 1.364 
1.644 1.635 1.617 1.6 1.584 1.568 1.553 1.538 1.524 1.51 1.497 1.483 1.47 1.457 1.444 1.431 1.418 1.404 1.389 1.373 1.364 
1.644 1.635 1.617 1.6 1.584 1.568 1.553 1.538 1.524 1.51 1.497 1.483 1.47 1.457 1.444 1.431 1.418 1.404 1.389 1.373 1.364 
1.644 1.635 1.617 1.6 1.584 1.568 1.553 1.538 1.524 1.51 1.497 1.483 1.47 1.457 1.444 1.431 1.418 1.404 1.389 1.373 1.364 
1.644 1.635 1.617 1.6 1.584 1.568 1.553 1.538 1.524 1.51 1.497 1.483 1.47 1.457 1.444 1.431 1.418 1.404 1.389 1.373 1.364 
1.644 1.635 1.617 1.6 1.584 1.568 1.553 1.538 1.524 1.51 1.497 1.483 1.47 1.457 1.444 1.431 1.418 1.404 1.389 1.373 1.364 
1.644 1.635 1.617 1.6 1.584 1.568 1.553 1.538 1.524 1.51 1.497 1.483 1.47 1.457 1.444 1.431 1.418 1.404 1.389 1.373 1.364 
1.644 1.635 1.617 1.6 1.584 1.568 1.553 1.538 1.524 1.51 1.497 1.483 1.47 1.457 1.444 1.431 1.418 1.404 1.389 1.373 1.364 
</DataArray>
<DataArray Name="ne" NumberOfComponents="1" format="ascii" type="Float64">
0.9635 0.9638 0.9655 0.9666 0.9679 0.969 0.9701 0.9711 0.9719 0.9727 0.9732 0.9738 0.9739 0.9742 0.9738 0.9735 0.9724 0.9713 0.9693 0.9669 0.9645 
0.9635 0.9638 0.9655 0.9666 0.9679 0.969 0.9701 0.9711 0.9719 0.9727 0.9732 0.9738 0.9739 0.9742 0.9738 0.9735 0.9724 0.9713 0.9693 0.9669 0.9645 
0.9635 0.9638 0.9655 0.9666 0.9679 0.969 0.9701 0.9711 0.9719 0.9727 0.9732 0.9738 0.9739 0.9742 0.9738 0.9735 0.9724 0.9713 0.9693 0.9669 0.9645 
0.9635 0.9638 0.9655 0.9666 0.9679 0.969 0.9701 0.9711 0.9719 0.9727 0.9732 0.9738 0.9739 0.9742 0.9738 0.9735 0.9724 0.9713 0.9693 0.9669 0.9645 
0.9635 0.9638 0.9655 0.9666 0.9679 0.969 0.9701 0.9711 0.9719 0.9727 0.9732 0.9738 0.9739 0.9742 0.9738 0.9735 0.9724 0.9713 0.9693 0.9669 0.9645 
0.9635 0.9638 0.9655 0.9666 0.9679 0.969 0.9701 0.9711 0.9719 0.9727 0.9732 0.9738 0.9739 0.9742 0.9738 0.9735 0.9724 0.9713 0.9693 0.9669 0.9645 
0.9635 0.9638 0.9655 0.9666 0.9679 0.969 0.9701 0.9711 0.9719 0.9727 0.9732 0.9738 0.9739 0.9742 0.9738 0.9735 0.9724 0.9713 0.9693 0.9669 0.9645 
0.9635 0.9638 0.9655 0.9666 0.9679 0.969 0.9701 0.9711 0.9719 0.9727 0.9732 0.9738 0.9739 0.9742 0.9738 0.9735 0.9724 0.9713 0.9693 0.9669 0.9645 
0.9635 0.9638 0.9655 0.9666 0.9679 0.969 0.9701 0.9711 0.9719 0.9727 0.9732 0.9738 0.9739 0.9742 0.9738 0.9735 0.9724 0.9713 0.9693 0.9669 0.9645 
0.9635 0.9638 0.9655 0.9666 0.9679 0.969 0.9701 0.9711 0.9719 0.9727 0.9732 0.9738 0.9739 0.9742 0.9738 0.9735 0.9724 0.9713 0.9693 0.9669 0.9645 
0.9635 0.9638 0.9655 0.9666 0.9679 0.969 0.9701 0.9711 0.9719 0.9727 0.9732 0.9738 0.9739 0.9742 0.9738 0.9735 0.9724 0.9713 0.9693 0.9669 0.9645 
0.9635 0.9638 0.9655 0.9666 0.9679 0.969 0.9701 0.9711 0.9719 0.9727 0.9732 0.9738 0.9739 0.9742 0.9738 0.9735 0.9724 0.9713 0.9693 0.9669 0.9645 
0.9635 0.9638 0.9655 0.9666 0.9679 0.969 0.9701 0.9711 0.9719 0.9727 0.9732 0.9738 0.9739 0.9742 0.9738 0.9735 0.9724 0.9713 0.9693 0.9669 0.9645 
0.9635 0.9638 0.9655 0.9666 0.9679 0.969 0.9701 0.9711 0.9719 0.9727 0.9732 0.9738 0.9739 0.9742 0.9738 0.9735 0.9724 0.9713 0.9693 0.9669 0.9645 
0.9635 0.9638 0.9655 0.9666 0.9679 0.969 0.9701 0.9711 0.9719 0.9727 0.9732 0.9738 0.9739 0.9742 0.9738 0.9735 0.9724 0.9713 0.9693 0.9669 0.9645 
0.9635 0.9638 0.9655 0.9666 0.9679 0.969 0.9701 0.9711 0.9719 0.9727 0.9732 0.9738 0.9739 0.9742 0.9738 0.9735 0.9724 0.9713 0.9693 0.9669 0.9645 
0.9635 0.9638 0.9655 0.9666 0.9679 0.969 0.9701 0.9711 0.9719 0.9727 0.9732 0.9738 0.9739 0.9742 0.9738 0.9735 0.9724 0.9713 0.9693 0.9669 0.9645 
0.9635 0.9638 0.9655 0.9666 0.9679 0.969 0.9701 0.9711 0.9719 0.9727 0.9732 0.9738 0.9739 0.9742 0.9738 0.9735 0.9724 0.9713 0.9693 0.9669 0.9645 
0.9635 0.9638 0.9655 0.9666 0.9679 0.969 0.9701 0.9711 0.9719 0.9727 0.9732 0.9738 0.9739 0.9742 0.9738 0.9735 0.9724 0.9713 0.9693 0.9669 0.9645 
0.9635 0.9638 0.9655 0.9666 0.9679 0.969 0.9701 0.9711 0.9719 0.9727 0.9732 0.9738 0.9739 0.9742 0.9738 0.9735 0.9724 0.9713 0.9693 0.9669 0.9645 
0.9635 0.9638 0.9655 0.9666 0.9679 0.969 0.9701 0.9711 0.9719 0.9727 0.9732 0.9738 0.9739 0.9742 0.9738 0.9735 0.9724 0.9713 0.9693 0.9669 0.9645 
0.9635 0.9638 0.9655 0.9666 0.9679 0.969 0.9701 0.9711 0.9719 0.9727 0.9732 0.9738 0.9739 0.9742 0.9738 0.9735 0.9724 0.9713 0.9693 0.9669 0.9645 
0.9635 0.9638 0.9655 0.9666 0.9679 0.969 0.9701 0.9711 0.9719 0.9727 0.9732 0.9738 0.9739 0.9742 0.9738 0.9735 0.9724 0.9713 0.9693 0.9669 0.9645 
0.9635 0.9638 0.9655 0.9666 0.9679 0.969 0.9701 0.9711 0.9719 0.9727 0.9732 0.9738 0.9739 0.9742 0.9738 0.9735 0.9724 0.9713 0.9693 0.9669 0.9645 
0.9635 0.9638 0.9655 0.9666 0.9679 0.969 0.9701 0.9711 0.9719 0.9727 0.9732 0.9738 0.9739 0.9742 0.9738 0.9735 0.9724 0.9713 0.9693 0.9669 0.9645 
0.9635 0.9638 0.9655 0.9666 0.9679 0.969 0.9701 0.9711 0.9719 0.9727 0.9732 0.9738 0.9739 0.9742 0.9738 0.9735 0.9724 0.9713 0.9693 0.9669 0.9645 
0.9635 0.9638 0.9655 0.9666 0.9679 0.969 0.9701 0.9711 0.9719 0.9727 0.9732 0.9738 0.9739 0.9742 0.9738 0.9735 0.9724 0.9713 0.9693 0.9669 0.9645 
0.9635 0.9638 0.9655 0.9666 0.9679 0.969 0.9701 0.9711 0.9719 0.9727 0.9732 0.9738 0.9739 0.9742 0.9738 0.9735 0.9724 0.9713 0.9693 0.9669 0.9645 
0.9635 0.9638 0.9655 0.9666 0.9679 0.969 0.9701 0.9711 0.9719 0.9727 0.9732 0.9738 0.9739 0.9742 0.9738 0.9735 0.9724 0.9713 0.9693 0.9669 0.9645 
0.9635 0.9638 0.9655 0.9666 0.9679 0.969 0.9701 0.9711 0.9719 0.9727 0.9732 0.9738 0.9739 0.9742 0.9738 0.9735 0.9724 0.9713 0.9693 0.9669 0.9645 
0.9635 0.9638 0.9655 0.9666 0.9679 0.969 0.9701 0.9711 0.9719 0.9727 0.9732 0.9738 0.9739 0.9742 0.9738 0.9735 0.9724 0.9713 0.9693 0.9669 0.9645 
0.9635 0.9638 0.9655 0.9666 0.9679 0.969 0.9701 0.9711 0.9719 0.9727 0.9732 0.9738 0.9739 0.9742 0.9738 0.9735 0.9724 0.9713 0.9693 0.9669 0.9645 
0.9635 0.9638 0.9655 0.9666 0.9679 0.969 0.9701 0.9711 0.9719 0.9727 0.9732 0.9738 0.9739 0.9742 0.9738 0.9735 0.9724 0.9713 0.9693 0.9669 0.9645 
0.9635 0.9638 0.9655 0.9666 0.9679 0.969 0.9701 0.9711 0.9719 0.9727 0.9732 0.9738 0.9739 0.9742 0.9738 0.9735 0.9724 0.9713 0.9693 0.9669 0.9645 
0.9635 0.9638 0.9655 0.9666 0.9679 0.969 0.9701 0.9711 0.9719 0.9727 0.9732 0.9738 0.9739 0.9742 0.9738 0.9735 0.9724 0.9713 0.9693 0.9669 0.9645 
0.9635 0.9638 0.9655 0.9666 0.9679 0.969 0.9701 0.9711 0.9719 0.9727 0.9732 0.9738 0.9739 0.9742 0.9738 0.9735 0.9724 0.9713 0.9693 0.9669 0.9645 
0.9635 0.9638 0.9655 0.9666 0.9679 0.969 0.9701 0.9711 0.9719 0.9727 0.9732 0.9738 0.9739 0.9742 0.9738 0.9735 0.9724 0.9713 0.9693 0.9669 0.9645 
0.9635 0.9638 0.9655 0.9666 0.9679 0.969 0.9701 0.9711 0.9719 0.9727 0.9732 0.9738 0.9739 0.9742 0.9738 0.9735 0.9724 0.9713 0.9693 0.9669 0.9645 
0.9635 0.9638 0.9655 0.9666 0.9679 0.969 0.9701 0.9711 0.9719 0.9727 0.9732 0.9738 0.9739 0.9742 0.9738 0.9735 0.9724 0.9713 0.9693 0.9669 0.9645 
0.9635 0.9638 0.9655 0.9666 0.9679 0.969 0.9701 0.9711 0.9719 0.9727 0.9732 0.9738 0.9739 0.9742 0.9738 0.9735 0.9724 0.9713 0.9693 0.9669 0.9645 
0.9635 0.9638 0.9655 0.9666 0.9679 0.969 0.9701 0.9711 0.9719 0.9727 0.9732 0.9738 0.9739 0.9742 0.9738 0.9735 0.9724 0.9713 0.9693 0.9669 0.9645 
</DataArray>
</PointData>
</Piece>
</ImageData>
</VTKFile>
