<VTKFile type="ImageData">
<ImageData Origin="0 -10 0" Spacing="0.5 0.5 1" WholeExtent="0 20 0 40 0 0">
<Piece Extent="0 20 0 40 0 0">
<PointData>
<DataArray Name="f" NumberOfComponents="1" format="ascii" type="Float64">
7.379e-11 1.23e-12 3.907e-17 8.099e-20 0 0 0 0 0 0 0 0 0 0 0 0 0 0 0 0 0 
2.588e-08 5.595e-10 2.592e-13 2.327e-15 0 0 0 0 0 0 0 0 0 0 0 0 0 0 0 0 0 
6.55e-07 2.834e-08 1.972e-10 4.419e-12 2.087e-16 8.657e-19 0 0 0 0 0 0 0 0 0 0 0 0 0 0 0 
9.91e-06 1.077e-06 5.993e-08 1.735e-09 1.198e-12 2.16e-14 2.229e-16 1.053e-18 0 0 0 0 0 0 0 0 0 0 0 0 0 
5.93e-05 1.151e-05 1.27e-06 7.414e-08 7.941e-10 3.578e-11 1.126e-12 2.317e-14 2.784e-16 1.574e-18 0 0 0 0 0 0 0 0 0 0 0 
0.000197 6.678e-05 1.418e-05 1.828e-06 1.185e-07 5.937e-09 3.544e-10 1.495e-11 4.182e-13 6.986e-15 5.686e-17 1.36e-19 0 0 0 0 0 0 0 0 0 
0.0003804 0.0002047 7.182e-05 1.61e-05 2.11e-06 2.003e-07 1.818e-08 1.167e-09 4.986e-11 1.275e-12 1.598e-14 6.052e-17 1.093e-20 0 0 0 0 0 0 0 0 
0.0004681 0.0003845 0.0002112 7.635e-05 1.734e-05 2.797e-06 3.696e-07 3.451e-08 2.147e-09 8.049e-11 1.502e-12 8.901e-15 3.166e-18 0 0 0 0 0 0 0 0 
0.00038 0.0004685 0.000392 0.0002197 8.039e-05 2.048e-05 3.894e-06 5.21e-07 4.652e-08 2.524e-09 6.954e-11 6.441e-13 4.508e-16 0 0 0 0 0 0 0 0 
0.0002046 0.0003768 0.0004744 0.0004035 0.0002286 8.843e-05 2.417e-05 4.624e-06 5.909e-07 4.628e-08 1.882e-09 2.729e-11 3.753e-14 0 0 0 0 0 0 0 0 
7.186e-05 0.000199 0.0003766 0.0004821 0.0004149 0.0002398 9.49e-05 2.607e-05 4.785e-06 5.427e-07 3.272e-08 7.455e-10 2.01e-12 0 0 0 0 0 0 0 0 
1.588e-05 6.726e-05 0.0001935 0.0003747 0.0004888 0.0004223 0.0002451 9.763e-05 2.593e-05 4.291e-06 3.862e-07 1.392e-08 7.342e-11 0 0 0 0 0 0 0 0 
2.073e-06 1.391e-05 6.233e-05 0.0001862 0.0003728 0.0004886 0.000424 0.0002482 9.656e-05 2.358e-05 3.202e-06 1.843e-07 1.897e-09 0 0 0 0 0 0 0 0 
1.449e-07 1.636e-06 1.192e-05 5.705e-05 0.0001803 0.0003692 0.0004912 0.0004308 0.0002494 9.122e-05 1.897e-05 1.766e-06 3.545e-08 7.661e-19 0 0 0 0 0 0 0 
4.599e-09 9.78e-08 1.238e-06 1.015e-05 5.288e-05 0.0001778 0.0003749 0.0005044 0.0004437 0.0002479 8.049e-05 1.234e-05 4.842e-07 8.335e-16 0 0 0 0 0 0 0 
4.829e-11 2.481e-09 5.998e-08 9.512e-07 8.723e-06 5.212e-05 0.0001819 0.0003865 0.0005303 0.0004643 0.0002415 6.248e-05 4.837e-06 6.249e-13 8.352e-19 0 0 0 0 0 0 
6.702e-14 1.962e-11 1.005e-09 4.022e-08 7.075e-07 8.638e-06 5.266e-05 0.0001832 0.0004046 0.0005736 0.0004949 0.000224 3.497e-05 3.119e-10 8.384e-15 2.525e-18 0 0 0 0 0 
3.611e-18 2.034e-14 2.398e-12 5.813e-10 2.149e-08 7.182e-07 8.161e-06 4.846e-05 0.0001795 0.0004302 0.0006458 0.0005393 0.0001781 9.735e-08 2.9e-11 1.443e-14 1.569e-18 0 0 0 0 
0 0 2.481e-16 1.24e-12 1.08e-10 2.411e-08 5.439e-07 5.828e-06 3.838e-05 0.0001656 0.000464 0.0007781 0.0006052 1.68e-05 3.384e-08 3e-11 5.556e-15 1.265e-19 0 0 0 
0 0 0 0 3.411e-14 1.616e-10 7.893e-09 1.754e-07 2.374e-06 2.119e-05 0.0001268 0.0004931 0.001137 0.001186 1.234e-05 2.296e-08 7.93e-12 3.192e-16 0 0 0 
0 0 0 0 0 0 0 0 0 4.287e-17 1.148e-12 5.219e-09 6.821e-06 0.003593 0.001194 6.583e-06 4.837e-09 3.69e-13 1.205e-18 0 0 
0 0 0 0 0 0 0 0 0 1.733e-20 6.306e-16 3.852e-12 6.656e-09 4.512e-06 0.001241 0.0005822 0.0001528 2.606e-05 2.973e-06 2.234e-07 1.214e-08 
0 0 0 0 0 0 0 0 0 0 1.653e-19 1.338e-15 3.042e-12 2.679e-09 0.0005852 0.0008288 0.0005158 0.0001889 4.466e-05 6.896e-06 7.596e-07 
0 0 0 0 0 0 0 0 0 0 0 1.968e-19 5.816e-16 6.626e-13 0.0001651 0.0005437 0.0006809 0.0004674 0.0001995 5.49e-05 1.059e-05 
0 0 0 0 0 0 0 0 0 0 0 0 4.104e-20 5.99e-17 3.103e-05 0.0002163 0.0005005 0.0005988 0.000433 0.0002002 6.403e-05 
0 0 0 0 0 0 0 0 0 0 0 0 0 0 4.09e-06 5.799e-05 0.0002352 0.0004676 0.0005483 0.0004089 0.0002084 
0 0 0 0 0 0 0 0 0 0 0 0 0 0 3.882e-07 1.101e-05 7.56e-05 0.0002412 0.0004439 0.0005169 0.0004063 
0 0 0 0 0 0 0 0 0 0 0 0 0 0 2.682e-08 1.512e-06 1.718e-05 8.575e-05 0.0002415 0.0004277 0.0005048 
0 0 0 0 0 0 0 0 0 0 0 0 0 0 1.348e-09 1.512e-07 2.792e-06 2.14e-05 9.038e-05 0.0002386 0.0004138 
0 0 0 0 0 0 0 0 0 0 0 0 0 0 4.871e-11 1.091e-08 3.236e-07 3.753e-06 2.343e-05 9.07e-05 0.0002272 
0 0 0 0 0 0 0 0 0 0 0 0 0 0 1.238e-12 5.566e-10 2.628e-08 4.564e-07 4.166e-06 2.337e-05 8.351e-05 
0 0 0 0 0 0 0 0 0 0 0 0 0 0 2.131e-14 1.933e-11 1.445e-09 3.732e-08 4.943e-07 3.987e-06 2.017e-05 
0 0 0 0 0 0 0 0 0 0 0 0 0 0 2.343e-16 4.311e-13 5.085e-11 1.945e-09 3.727e-08 4.308e-07 3.079e-06 
0 0 0 0 0 0 0 0 0 0 0 0 0 0 1.494e-18 5.601e-15 1.041e-12 5.903e-11 1.64e-09 2.725e-08 2.768e-07 
0 0 0 0 0 0 0 0 0 0 0 0 0 0 0 3.561e-17 1.045e-14 8.853e-13 3.611e-11 8.75e-10 1.29e-08 
0 0 0 0 0 0 0 0 0 0 0 0 0 0 0 7.434e-20 3.484e-17 4.552e-15 2.847e-13 1.054e-11 2.392e-10 
0 0 0 0 0 0 0 0 0 0 0 0 0 0 0 0 0 8.996e-19 1.701e-16 1.484e-14 7.495e-13 
0 0 0 0 0 0 0 0 0 0 0 0 0 0 0 0 0 0 0 5.607e-19 1.28e-16 
0 0 0 0 0 0 0 0 0 0 0 0 0 0 0 0 0 0 0 0 0 
0 0 0 0 0 0 0 0 0 0 0 0 0 0 0 0 0 0 0 0 0 
0 0 0 0 0 0 0 0 0 0 0 0 0 0 0 0 0 0 0 0 0 
</DataArray>
<DataArray Name="E" NumberOfComponents="1" format="ascii" type="Float64">
6.245 5.995 5.496 4.996 4.496 3.997 3.497 2.998 2.498 1.999 1.5 1 0.5007 0.001545 -0.4974 -0.9967 -1.496 -1.996 -2.495 -2.994 -3.244 
6.245 5.995 5.496 4.996 4.496 3.997 3.497 2.998 2.498 1.999 1.5 1 0.5007 0.001545 -0.4974 -0.9967 -1.496 -1.996 -2.495 -2.994 -3.244 
6.245 5.995 5.496 4.996 4.496 3.997 3.497 2.998 2.498 1.999 1.5 1 0.5007 0.001545 -0.4974 -0.9967 -1.496 -1.996 -2.495 -2.994 -3.244 
6.245 5.995 5.496 4.996 4.496 3.997 3.497 2.998 2.498 1.999 1.5 1 0.5007 0.001545 -0.4974 -0.9967 -1.496 -1.996 -2.495 -2.994 -3.244 
6.245 5.995 5.496 4.996 4.496 3.997 3.497 2.998 2.498 1.999 1.5 1 0.5007 0.001545 -0.4974 -0.9967 -1.496 -1.996 -2.495 -2.994 -3.244 
6.245 5.995 5.496 4.996 4.496 3.997 3.497 2.998 2.498 1.999 1.5 1 0.5007 0.001545 -0.4974 -0.9967 -1.496 -1.996 -2.495 -2.994 -3.244 
6.245 5.995 5.496 4.996 4.496 3.997 3.497 2.998 2.498 1.999 1.5 1 0.5007 0.001545 -0.4974 -0.9967 -1.496 -1.996 -2.495 -2.994 -3.244 
6.245 5.995 5.496 4.996 4.496 3.997 3.497 2.998 2.498 1.999 1.5 1 0.5007 0.001545 -0.4974 -0.9967 -1.496 -1.996 -2.495 -2.994 -3.244 
6.245 5.995 5.496 4.996 4.496 3.997 3.497 2.998 2.498 1.999 1.5 1 0.5007 0.001545 -0.4974 -0.9967 -1.496 -1.996 -2.495 -2.994 -3.244 
6.245 5.995 5.496 4.996 4.496 3.997 3.497 2.998 2.498 1.999 1.5 1 0.5007 0.001545 -0.4974 -0.9967 -1.496 -1.996 -2.495 -2.994 -3.244 
6.245 5.995 5.496 4.996 4.496 3.997 3.497 2.998 2.498 1.999 1.5 1 0.5007 0.001545 -0.4974 -0.9967 -1.496 -1.996 -2.495 -2.994 -3.244 
6.245 5.995 5.496 4.996 4.496 3.997 3.497 2.998 2.498 1.999 1.5 1 0.5007 0.001545 -0.4974 -0.9967 -1.496 -1.996 -2.495 -2.994 -3.244 
6.245 5.995 5.496 4.996 4.496 3.997 3.497 2.998 2.498 1.999 1.5 1 0.5007 0.001545 -0.4974 -0.9967 -1.496 -1.996 -2.495 -2.994 -3.244 
6.245 5.995 5.496 4.996 4.496 3.997 3.497 2.998 2.498 1.999 1.5 1 0.5007 0.001545 -0.4974 -0.9967 -1.496 -1.996 -2.495 -2.994 -3.244 
6.245 5.995 5.496 4.996 4.496 3.997 3.497 2.998 2.498 1.999 1.5 1 0.5007 0.001545 -0.4974 -0.9967 -1.496 -1.996 -2.495 -2.994 -3.244 
6.245 5.995 5.496 4.996 4.496 3.997 3.497 2.998 2.498 1.999 1.5 1 0.5007 0.001545 -0.4974 -0.9967 -1.496 -1.996 -2.495 -2.994 -3.244 
6.245 5.995 5.496 4.996 4.496 3.997 3.497 2.998 2.498 1.999 1.5 1 0.5007 0.001545 -0.4974 -0.9967 -1.496 -1.996 -2.495 -2.994 -3.244 
6.245 5.995 5.496 4.996 4.496 3.997 3.497 2.998 2.498 1.999 1.5 1 0.5007 0.001545 -0.4974 -0.9967 -1.496 -1.996 -2.495 -2.994 -3.244 
6.245 5.995 5.496 4.996 4.496 3.997 3.497 2.998 2.498 1.999 1.5 1 0.5007 0.001545 -0.4974 -0.9967 -1.496 -1.996 -2.495 -2.994 -3.244 
6.245 5.995 5.496 4.996 4.496 3.997 3.497 2.998 2.498 1.999 1.5 1 0.5007 0.001545 -0.4974 -0.9967 -1.496 -1.996 -2.495 -2.994 -3.244 
6.245 5.995 5.496 4.996 4.496 3.997 3.497 2.998 2.498 1.999 1.5 1 0.5007 0.001545 -0.4974 -0.9967 -1.496 -1.996 -2.495 -2.994 -3.244 
6.245 5.995 5.496 4.996 4.496 3.997 3.497 2.998 2.498 1.999 1.5 1 0.5007 0.001545 -0.4974 -0.9967 -1.496 -1.996 -2.495 -2.994 -3.244 
6.245 5.995 5.496 4.996 4.496 3.997 3.497 2.998 2.498 1.999 1.5 1 0.5007 0.001545 -0.4974 -0.9967 -1.496 -1.996 -2.495 -2.994 -3.244 
6.245 5.995 5.496 4.996 4.496 3.997 3.497 2.998 2.498 1.999 1.5 1 0.5007 0.001545 -0.4974 -0.9967 -1.496 -1.996 -2.495 -2.994 -3.244 
6.245 5.995 5.496 4.996 4.496 3.997 3.497 2.998 2.498 1.999 1.5 1 0.5007 0.001545 -0.4974 -0.9967 -1.496 -1.996 -2.495 -2.994 -3.244 
6.245 5.995 5.496 4.996 4.496 3.997 3.497 2.998 2.498 1.999 1.5 1 0.5007 0.001545 -0.4974 -0.9967 -1.496 -1.996 -2.495 -2.994 -3.244 
6.245 5.995 5.496 4.996 4.496 3.997 3.497 2.998 2.498 1.999 1.5 1 0.5007 0.001545 -0.4974 -0.9967 -1.496 -1.996 -2.495 -2.994 -3.244 
6.245 5.995 5.496 4.996 4.496 3.997 3.497 2.998 2.498 1.999 1.5 1 0.5007 0.001545 -0.4974 -0.9967 -1.496 -1.996 -2.495 -2.994 -3.244 
6.245 5.995 5.496 4.996 4.496 3.997 3.497 2.998 2.498 1.999 1.5 1 0.5007 0.001545 -0.4974 -0.9967 -1.496 -1.996 -2.495 -2.994 -3.244 
6.245 5.995 5.496 4.996 4.496 3.997 3.497 2.998 2.498 1.999 1.5 1 0.5007 0.001545 -0.4974 -0.9967 -1.496 -1.996 -2.495 -2.994 -3.244 
6.245 5.995 5.496 4.996 4.496 3.997 3.497 2.998 2.498 1.999 1.5 1 0.5007 0.001545 -0.4974 -0.9967 -1.496 -1.996 -2.495 -2.994 -3.244 
6.245 5.995 5.496 4.996 4.496 3.997 3.497 2.998 2.498 1.999 1.5 1 0.5007 0.001545 -0.4974 -0.9967 -1.496 -1.996 -2.495 -2.994 -3.244 
6.245 5.995 5.496 4.996 4.496 3.997 3.497 2.998 2.498 1.999 1.5 1 0.5007 0.001545 -0.4974 -0.9967 -1.496 -1.996 -2.495 -2.994 -3.244 
6.245 5.995 5.496 4.996 4.496 3.997 3.497 2.998 2.498 1.999 1.5 1 0.5007 0.001545 -0.4974 -0.9967 -1.496 -1.996 -2.495 -2.994 -3.244 
6.245 5.995 5.496 4.996 4.496 3.997 3.497 2.998 2.498 1.999 1.5 1 0.5007 0.001545 -0.4974 -0.9967 -1.496 -1.996 -2.495 -2.994 -3.244 
6.245 5.995 5.496 4.996 4.496 3.997 3.497 2.998 2.498 1.999 1.5 1 0.5007 0.001545 -0.4974 -0.9967 -1.496 -1.996 -2.495 -2.994 -3.244 
6.245 5.995 5.496 4.996 4.496 3.997 3.497 2.998 2.498 1.999 1.5 1 0.5007 0.001545 -0.4974 -0.9967 -1.496 -1.996 -2.495 -2.994 -3.244 
6.245 5.995 5.496 4.996 4.496 3.997 3.497 2.998 2.498 1.999 1.5 1 0.5007 0.001545 -0.4974 -0.9967 -1.496 -1.996 -2.495 -2.994 -3.244 
6.245 5.995 5.496 4.996 4.496 3.997 3.497 2.998 2.498 1.999 1.5 1 0.5007 0.001545 -0.4974 -0.9967 -1.496 -1.996 -2.495 -2.994 -3.244 
6.245 5.995 5.496 4.996 4.496 3.997 3.497 2.998 2.498 1.999 1.5 1 0.5007 0.001545 -0.4974 -0.9967 -1.496 -1.996 -2.495 -2.994 -3.244 
6.245 5.995 5.496 4.996 4.496 3.997 3.497 2.998 2.498 1.999 1.5 1 0.5007 0.001545 -0.4974 -0.9967 -1.496 -1.996 -2.495 -2.994 -3.244 
</DataArray>
<DataArray Name="ne" NumberOfComponents="1" format="ascii" type="Float64">
0.0009453 0.0009513 0.0009604 0.0009694 0.0009803 0.0009926 0.001009 0.001028 0.00105 0.001075 0.001104 0.001124 0.001049 0.002441 0.001726 0.001195 0.001158 0.001114 0.001076 0.001044 0.001026 
0.0009453 0.0009513 0.0009604 0.0009694 0.0009803 0.0009926 0.001009 0.001028 0.00105 0.001075 0.001104 0.001124 0.001049 0.002441 0.001726 0.001195 0.001158 0.001114 0.001076 0.001044 0.001026 
0.0009453 0.0009513 0.0009604 0.0009694 0.0009803 0.0009926 0.001009 0.001028 0.00105 0.001075 0.001104 0.001124 0.001049 0.002441 0.001726 0.001195 0.001158 0.001114 0.001076 0.001044 0.001026 
0.0009453 0.0009513 0.0009604 0.0009694 0.0009803 0.0009926 0.001009 0.001028 0.00105 0.001075 0.001104 0.001124 0.001049 0.002441 0.001726 0.001195 0.001158 0.001114 0.001076 0.001044 0.001026 
0.0009453 0.0009513 0.0009604 0.0009694 0.0009803 0.0009926 0.001009 0.001028 0.00105 0.001075 0.001104 0.001124 0.001049 0.002441 0.001726 0.001195 0.001158 0.001114 0.001076 0.001044 0.001026 
0.0009453 0.0009513 0.0009604 0.0009694 0.0009803 0.0009926 0.001009 0.001028 0.00105 0.001075 0.001104 0.001124 0.001049 0.002441 0.001726 0.001195 0.001158 0.001114 0.001076 0.001044 0.001026 
0.0009453 0.0009513 0.0009604 0.0009694 0.0009803 0.0009926 0.001009 0.001028 0.00105 0.001075 0.001104 0.001124 0.001049 0.002441 0.001726 0.001195 0.001158 0.001114 0.001076 0.001044 0.001026 
0.0009453 0.0009513 0.0009604 0.0009694 0.0009803 0.0009926 0.001009 0.001028 0.00105 0.001075 0.001104 0.001124 0.001049 0.002441 0.001726 0.001195 0.001158 0.001114 0.001076 0.001044 0.001026 
0.0009453 0.0009513 0.0009604 0.0009694 0.0009803 0.0009926 0.001009 0.001028 0.00105 0.001075 0.001104 0.001124 0.001049 0.002441 0.001726 0.001195 0.001158 0.001114 0.001076 0.001044 0.001026 
0.0009453 0.0009513 0.0009604 0.0009694 0.0009803 0.0009926 0.001009 0.001028 0.00105 0.001075 0.001104 0.001124 0.001049 0.002441 0.001726 0.001195 0.001158 0.001114 0.001076 0.001044 0.001026 
0.0009453 0.0009513 0.0009604 0.0009694 0.0009803 0.0009926 0.001009 0.001028 0.00105 0.001075 0.001104 0.001124 0.001049 0.002441 0.001726 0.001195 0.001158 0.001114 0.001076 0.001044 0.001026 
0.0009453 0.0009513 0.0009604 0.0009694 0.0009803 0.0009926 0.001009 0.001028 0.00105 0.001075 0.001104 0.001124 0.001049 0.002441 0.001726 0.001195 0.001158 0.001114 0.001076 0.001044 0.001026 
0.0009453 0.0009513 0.0009604 0.0009694 0.0009803 0.0009926 0.001009 0.001028 0.00105 0.001075 0.001104 0.001124 0.001049 0.002441 0.001726 0.001195 0.001158 0.001114 0.001076 0.001044 0.001026 
0.0009453 0.0009513 0.0009604 0.0009694 0.0009803 0.0009926 0.001009 0.001028 0.00105 0.001075 0.001104 0.001124 0.001049 0.002441 0.001726 0.001195 0.001158 0.001114 0.001076 0.001044 0.001026 
0.0009453 0.0009513 0.0009604 0.0009694 0.0009803 0.0009926 0.001009 0.001028 0.00105 0.001075 0.001104 0.001124 0.001049 0.002441 0.001726 0.001195 0.001158 0.001114 0.001076 0.001044 0.001026 
0.0009453 0.0009513 0.0009604 0.0009694 0.0009803 0.0009926 0.001009 0.001028 0.00105 0.001075 0.001104 0.001124 0.001049 0.002441 0.001726 0.001195 0.001158 0.001114 0.001076 0.001044 0.001026 
0.0009453 0.0009513 0.0009604 0.0009694 0.0009803 0.0009926 0.001009 0.001028 0.00105 0.001075 0.001104 0.001124 0.001049 0.002441 0.001726 0.001195 0.001158 0.001114 0.001076 0.001044 0.001026 
0.0009453 0.0009513 0.0009604 0.0009694 0.0009803 0.0009926 0.001009 0.001028 0.00105 0.001075 0.001104 0.001124 0.001049 0.002441 0.001726 0.001195 0.001158 0.001114 0.001076 0.001044 0.001026 
0.0009453 0.0009513 0.0009604 0.0009694 0.0009803 0.0009926 0.001009 0.001028 0.00105 0.001075 0.001104 0.001124 0.001049 0.002441 0.001726 0.001195 0.001158 0.001114 0.001076 0.001044 0.001026 
0.0009453 0.0009513 0.0009604 0.0009694 0.0009803 0.0009926 0.001009 0.001028 0.00105 0.001075 0.001104 0.001124 0.001049 0.002441 0.001726 0.001195 0.001158 0.001114 0.001076 0.001044 0.001026 
0.0009453 0.0009513 0.0009604 0.0009694 0.0009803 0.0009926 0.001009 0.001028 0.00105 0.001075 0.001104 0.001124 0.001049 0.002441 0.001726 0.001195 0.001158 0.001114 0.001076 0.001044 0.001026 
0.0009453 0.0009513 0.0009604 0.0009694 0.0009803 0.0009926 0.001009 0.001028 0.00105 0.001075 0.001104 0.001124 0.001049 0.002441 0.001726 0.001195 0.001158 0.001114 0.001076 0.001044 0.001026 
0.0009453 0.0009513 0.0009604 0.0009694 0.0009803 0.0009926 0.001009 0.001028 0.00105 0.001075 0.001104 0.001124 0.001049 0.002441 0.001726 0.001195 0.001158 0.001114 0.001076 0.001044 0.001026 
0.0009453 0.0009513 0.0009604 0.0009694 0.0009803 0.0009926 0.001009 0.001028 0.00105 0.001075 0.001104 0.001124 0.001049 0.002441 0.001726 0.001195 0.001158 0.001114 0.001076 0.001044 0.001026 
0.0009453 0.0009513 0.0009604 0.0009694 0.0009803 0.0009926 0.001009 0.001028 0.00105 0.001075 0.001104 0.001124 0.001049 0.002441 0.001726 0.001195 0.001158 0.001114 0.001076 0.001044 0.001026 
0.0009453 0.0009513 0.0009604 0.0009694 0.0009803 0.0009926 0.001009 0.001028 0.00105 0.001075 0.001104 0.001124 0.001049 0.002441 0.001726 0.001195 0.001158 0.001114 0.001076 0.001044 0.001026 
0.0009453 0.0009513 0.0009604 0.0009694 0.0009803 0.0009926 0.001009 0.001028 0.00105 0.001075 0.001104 0.001124 0.001049 0.002441 0.001726 0.001195 0.001158 0.001114 0.001076 0.001044 0.001026 
0.0009453 0.0009513 0.0009604 0.0009694 0.0009803 0.0009926 0.001009 0.001028 0.00105 0.001075 0.001104 0.001124 0.001049 0.002441 0.001726 0.001195 0.001158 0.001114 0.001076 0.001044 0.001026 
0.0009453 0.0009513 0.0009604 0.0009694 0.0009803 0.0009926 0.001009 0.001028 0.00105 0.001075 0.001104 0.001124 0.001049 0.002441 0.001726 0.001195 0.001158 0.001114 0.001076 0.001044 0.001026 
0.0009453 0.0009513 0.0009604 0.0009694 0.0009803 0.0009926 0.001009 0.001028 0.00105 0.001075 0.001104 0.001124 0.001049 0.002441 0.001726 0.001195 0.001158 0.001114 0.001076 0.001044 0.001026 
0.0009453 0.0009513 0.0009604 0.0009694 0.0009803 0.0009926 0.001009 0.001028 0.00105 0.001075 0.001104 0.001124 0.001049 0.002441 0.001726 0.001195 0.001158 0.001114 0.001076 0.001044 0.001026 
0.0009453 0.0009513 0.0009604 0.0009694 0.0009803 0.0009926 0.001009 0.001028 0.00105 0.001075 0.001104 0.001124 0.001049 0.002441 0.001726 0.001195 0.001158 0.001114 0.001076 0.001044 0.001026 
0.0009453 0.0009513 0.0009604 0.0009694 0.0009803 0.0009926 0.001009 0.001028 0.00105 0.001075 0.001104 0.001124 0.001049 0.002441 0.001726 0.001195 0.001158 0.001114 0.001076 0.001044 0.001026 
0.0009453 0.0009513 0.0009604 0.0009694 0.0009803 0.0009926 0.001009 0.001028 0.00105 0.001075 0.001104 0.001124 0.001049 0.002441 0.001726 0.001195 0.001158 0.001114 0.001076 0.001044 0.001026 
0.0009453 0.0009513 0.0009604 0.0009694 0.0009803 0.0009926 0.001009 0.001028 0.00105 0.001075 0.001104 0.001124 0.001049 0.002441 0.001726 0.001195 0.001158 0.001114 0.001076 0.001044 0.001026 
0.0009453 0.0009513 0.0009604 0.0009694 0.0009803 0.0009926 0.001009 0.001028 0.00105 0.001075 0.001104 0.001124 0.001049 0.002441 0.001726 0.001195 0.001158 0.001114 0.001076 0.001044 0.001026 
0.0009453 0.0009513 0.0009604 0.0009694 0.0009803 0.0009926 0.001009 0.001028 0.00105 0.001075 0.001104 0.001124 0.001049 0.002441 0.001726 0.001195 0.001158 0.001114 0.001076 0.001044 0.001026 
0.0009453 0.0009513 0.0009604 0.0009694 0.0009803 0.0009926 0.001009 0.001028 0.00105 0.001075 0.001104 0.001124 0.001049 0.002441 0.001726 0.001195 0.001158 0.001114 0.001076 0.001044 0.001026 
0.0009453 0.0009513 0.0009604 0.0009694 0.0009803 0.0009926 0.001009 0.001028 0.00105 0.001075 0.001104 0.001124 0.001049 0.002441 0.001726 0.001195 0.001158 0.001114 0.001076 0.001044 0.001026 
0.0009453 0.0009513 0.0009604 0.0009694 0.0009803 0.0009926 0.001009 0.001028 0.00105 0.001075 0.001104 0.001124 0.001049 0.002441 0.001726 0.001195 0.001158 0.001114 0.001076 0.001044 0.001026 
0.0009453 0.0009513 0.0009604 0.0009694 0.0009803 0.0009926 0.001009 0.001028 0.00105 0.001075 0.001104 0.001124 0.001049 0.002441 0.001726 0.001195 0.001158 0.001114 0.001076 0.001044 0.001026 
</DataArray>
</PointData>
</Piece>
</ImageData>
</VTKFile>
