<VTKFile type="ImageData">
<ImageData Origin="0 -10 0" Spacing="0.5 0.5 1" WholeExtent="0 20 0 40 0 0">
<Piece Extent="0 20 0 40 0 0">
<PointData>
<DataArray Name="f" NumberOfComponents="1" format="ascii" type="Float64">
3.563e-11 5.907e-13 1.799e-17 3.665e-20 0 0 0 0 0 0 0 0 0 0 0 0 0 0 0 0 0 
1.282e-08 2.748e-10 1.231e-13 1.097e-15 0 0 0 0 0 0 0 0 0 0 0 0 0 0 0 0 0 
3.258e-07 1.4e-08 9.556e-11 2.131e-12 9.69e-17 3.951e-19 0 0 0 0 0 0 0 0 0 0 0 0 0 0 0 
4.954e-06 5.363e-07 2.97e-08 8.532e-10 5.719e-13 1.022e-14 1.043e-16 4.855e-19 0 0 0 0 0 0 0 0 0 0 0 0 0 
2.971e-05 5.748e-06 6.315e-07 3.664e-08 3.857e-10 1.727e-11 5.401e-13 1.103e-14 1.312e-16 7.316e-19 0 0 0 0 0 0 0 0 0 0 0 
9.893e-05 3.343e-05 7.07e-06 9.079e-07 5.846e-08 2.899e-09 1.721e-10 7.212e-12 2.003e-13 3.316e-15 2.664e-17 6.222e-20 0 0 0 0 0 0 0 0 0 
0.0001913 0.0001026 3.589e-05 8.016e-06 1.045e-06 9.843e-08 8.884e-09 5.669e-10 2.405e-11 6.096e-13 7.54e-15 2.792e-17 0 0 0 0 0 0 0 0 0 
0.0002356 0.000193 0.0001057 3.807e-05 8.605e-06 1.38e-06 1.814e-07 1.684e-08 1.04e-09 3.866e-11 7.126e-13 4.135e-15 1.381e-18 0 0 0 0 0 0 0 0 
0.0001914 0.0002354 0.0001963 0.0001097 3.998e-05 1.014e-05 1.917e-06 2.55e-07 2.262e-08 1.217e-09 3.315e-11 3.01e-13 1.993e-16 0 0 0 0 0 0 0 0 
0.0001031 0.0001894 0.0002378 0.0002016 0.0001138 4.385e-05 1.193e-05 2.269e-06 2.881e-07 2.238e-08 9.003e-10 1.282e-11 1.678e-14 0 0 0 0 0 0 0 0 
3.624e-05 0.0001001 0.0001889 0.0002411 0.0002067 0.0001191 4.689e-05 1.281e-05 2.337e-06 2.63e-07 1.569e-08 3.516e-10 9.075e-13 0 0 0 0 0 0 0 0 
8.009e-06 3.384e-05 9.708e-05 0.0001874 0.0002437 0.0002098 0.0001212 4.803e-05 1.268e-05 2.083e-06 1.856e-07 6.587e-09 3.343e-11 0 0 0 0 0 0 0 0 
1.046e-06 7e-06 3.128e-05 9.316e-05 0.0001859 0.0002428 0.0002098 0.0001222 4.726e-05 1.146e-05 1.541e-06 8.743e-08 8.703e-10 0 0 0 0 0 0 0 0 
7.313e-08 8.236e-07 5.981e-06 2.855e-05 8.99e-05 0.0001835 0.0002431 0.0002122 0.0001221 4.435e-05 9.137e-06 8.392e-07 1.636e-08 0 0 0 0 0 0 0 0 
2.322e-09 4.923e-08 6.211e-07 5.077e-06 2.638e-05 8.836e-05 0.0001856 0.0002485 0.0002174 0.0001206 3.88e-05 5.872e-06 2.247e-07 1.368e-17 0 0 0 0 0 0 0 
2.434e-11 1.249e-09 3.01e-08 4.76e-07 4.351e-06 2.591e-05 9.01e-05 0.0001906 0.0002599 0.000226 0.0001165 2.977e-05 2.254e-06 1.996e-14 0 0 0 0 0 0 0 
3.295e-14 9.879e-12 5.033e-10 2.013e-08 3.527e-07 4.296e-06 2.61e-05 9.037e-05 0.0001985 0.0002794 0.0002389 0.0001068 1.634e-05 1.94e-11 1.197e-16 1.431e-20 0 0 0 0 0 
9.849e-19 1.033e-14 1.173e-12 2.912e-10 1.069e-08 3.574e-07 4.05e-06 2.394e-05 8.818e-05 0.0002098 0.0003121 0.0002575 8.338e-05 1.179e-08 1.082e-12 2.136e-16 0 0 0 0 0 
0 0 6.753e-17 6.258e-13 5.239e-11 1.202e-08 2.707e-07 2.888e-06 1.891e-05 8.098e-05 0.0002249 0.0003726 0.000284 3.97e-06 3.074e-09 1.081e-12 6.719e-17 0 0 0 0 
0 0 0 0 9.272e-15 8.111e-11 3.957e-09 8.755e-08 1.177e-06 1.043e-05 6.179e-05 0.0002376 0.0005401 0.0005529 2.568e-06 1.897e-09 2.197e-13 2.325e-18 0 0 0 
0 0 0 0 0 0 0 0 0 6.724e-19 6.858e-14 9.299e-10 3.061e-06 0.003588 0.0005411 1.183e-06 2.914e-10 5.842e-15 0 0 0 
0 0 0 0 0 0 0 0 0 0 1.735e-17 3.162e-13 1.377e-09 2.078e-06 0.0005791 0.0002715 7.15e-05 1.222e-05 1.394e-06 1.046e-07 5.67e-09 
0 0 0 0 0 0 0 0 0 0 0 4.799e-17 2.75e-13 5.395e-10 0.0002801 0.0003963 0.0002468 9.046e-05 2.138e-05 3.298e-06 3.626e-07 
0 0 0 0 0 0 0 0 0 0 0 0 2.16e-17 5.485e-14 8.103e-05 0.0002655 0.000332 0.0002276 9.703e-05 2.666e-05 5.131e-06 
0 0 0 0 0 0 0 0 0 0 0 0 0 1.898e-18 1.56e-05 0.0001078 0.0002484 0.0002964 0.0002138 9.858e-05 3.142e-05 
0 0 0 0 0 0 0 0 0 0 0 0 0 0 2.108e-06 2.948e-05 0.0001188 0.0002352 0.0002747 0.0002041 0.0001036 
0 0 0 0 0 0 0 0 0 0 0 0 0 0 2.052e-07 5.707e-06 3.887e-05 0.0001233 0.0002258 0.0002617 0.0002048 
0 0 0 0 0 0 0 0 0 0 0 0 0 0 1.455e-08 8e-07 8.988e-06 4.455e-05 0.0001247 0.0002197 0.000258 
0 0 0 0 0 0 0 0 0 0 0 0 0 0 7.513e-10 8.163e-08 1.487e-06 1.13e-05 4.741e-05 0.0001244 0.0002145 
0 0 0 0 0 0 0 0 0 0 0 0 0 0 2.793e-11 6.015e-09 1.756e-07 2.016e-06 1.249e-05 4.801e-05 0.0001196 
0 0 0 0 0 0 0 0 0 0 0 0 0 0 7.313e-13 3.134e-10 1.453e-08 2.495e-07 2.257e-06 1.257e-05 4.462e-05 
0 0 0 0 0 0 0 0 0 0 0 0 0 0 1.299e-14 1.113e-11 8.147e-10 2.077e-08 2.724e-07 2.179e-06 1.095e-05 
0 0 0 0 0 0 0 0 0 0 0 0 0 0 1.477e-16 2.539e-13 2.924e-11 1.103e-09 2.091e-08 2.395e-07 1.7e-06 
0 0 0 0 0 0 0 0 0 0 0 0 0 0 9.759e-19 3.379e-15 6.113e-13 3.412e-11 9.371e-10 1.542e-08 1.555e-07 
0 0 0 0 0 0 0 0 0 0 0 0 0 0 0 2.202e-17 6.271e-15 5.223e-13 2.104e-11 5.048e-10 7.381e-09 
0 0 0 0 0 0 0 0 0 0 0 0 0 0 0 4.721e-20 2.139e-17 2.746e-15 1.695e-13 6.211e-12 1.398e-10 
0 0 0 0 0 0 0 0 0 0 0 0 0 0 0 0 0 5.658e-19 1.049e-16 9.022e-15 4.504e-13 
0 0 0 0 0 0 0 0 0 0 0 0 0 0 0 0 0 0 0 3.61e-19 8.052e-17 
0 0 0 0 0 0 0 0 0 0 0 0 0 0 0 0 0 0 0 0 0 
0 0 0 0 0 0 0 0 0 0 0 0 0 0 0 0 0 0 0 0 0 
0 0 0 0 0 0 0 0 0 0 0 0 0 0 0 0 0 0 0 0 0 
</DataArray>
<DataArray Name="E" NumberOfComponents="1" format="ascii" type="Float64">
6.247 5.997 5.498 4.998 4.498 3.998 3.499 2.999 2.499 1.999 1.5 0.9999 0.5002 0.0008247 -0.4985 -0.9981 -1.498 -1.998 -2.497 -2.997 -3.247 
6.247 5.997 5.498 4.998 4.498 3.998 3.499 2.999 2.499 1.999 1.5 0.9999 0.5002 0.0008247 -0.4985 -0.9981 -1.498 -1.998 -2.497 -2.997 -3.247 
6.247 5.997 5.498 4.998 4.498 3.998 3.499 2.999 2.499 1.999 1.5 0.9999 0.5002 0.0008247 -0.4985 -0.9981 -1.498 -1.998 -2.497 -2.997 -3.247 
6.247 5.997 5.498 4.998 4.498 3.998 3.499 2.999 2.499 1.999 1.5 0.9999 0.5002 0.0008247 -0.4985 -0.9981 -1.498 -1.998 -2.497 -2.997 -3.247 
6.247 5.997 5.498 4.998 4.498 3.998 3.499 2.999 2.499 1.999 1.5 0.9999 0.5002 0.0008247 -0.4985 -0.9981 -1.498 -1.998 -2.497 -2.997 -3.247 
6.247 5.997 5.498 4.998 4.498 3.998 3.499 2.999 2.499 1.999 1.5 0.9999 0.5002 0.0008247 -0.4985 -0.9981 -1.498 -1.998 -2.497 -2.997 -3.247 
6.247 5.997 5.498 4.998 4.498 3.998 3.499 2.999 2.499 1.999 1.5 0.9999 0.5002 0.0008247 -0.4985 -0.9981 -1.498 -1.998 -2.497 -2.997 -3.247 
6.247 5.997 5.498 4.998 4.498 3.998 3.499 2.999 2.499 1.999 1.5 0.9999 0.5002 0.0008247 -0.4985 -0.9981 -1.498 -1.998 -2.497 -2.997 -3.247 
6.247 5.997 5.498 4.998 4.498 3.998 3.499 2.999 2.499 1.999 1.5 0.9999 0.5002 0.0008247 -0.4985 -0.9981 -1.498 -1.998 -2.497 -2.997 -3.247 
6.247 5.997 5.498 4.998 4.498 3.998 3.499 2.999 2.499 1.999 1.5 0.9999 0.5002 0.0008247 -0.4985 -0.9981 -1.498 -1.998 -2.497 -2.997 -3.247 
6.247 5.997 5.498 4.998 4.498 3.998 3.499 2.999 2.499 1.999 1.5 0.9999 0.5002 0.0008247 -0.4985 -0.9981 -1.498 -1.998 -2.497 -2.997 -3.247 
6.247 5.997 5.498 4.998 4.498 3.998 3.499 2.999 2.499 1.999 1.5 0.9999 0.5002 0.0008247 -0.4985 -0.9981 -1.498 -1.998 -2.497 -2.997 -3.247 
6.247 5.997 5.498 4.998 4.498 3.998 3.499 2.999 2.499 1.999 1.5 0.9999 0.5002 0.0008247 -0.4985 -0.9981 -1.498 -1.998 -2.497 -2.997 -3.247 
6.247 5.997 5.498 4.998 4.498 3.998 3.499 2.999 2.499 1.999 1.5 0.9999 0.5002 0.0008247 -0.4985 -0.9981 -1.498 -1.998 -2.497 -2.997 -3.247 
6.247 5.997 5.498 4.998 4.498 3.998 3.499 2.999 2.499 1.999 1.5 0.9999 0.5002 0.0008247 -0.4985 -0.9981 -1.498 -1.998 -2.497 -2.997 -3.247 
6.247 5.997 5.498 4.998 4.498 3.998 3.499 2.999 2.499 1.999 1.5 0.9999 0.5002 0.0008247 -0.4985 -0.9981 -1.498 -1.998 -2.497 -2.997 -3.247 
6.247 5.997 5.498 4.998 4.498 3.998 3.499 2.999 2.499 1.999 1.5 0.9999 0.5002 0.0008247 -0.4985 -0.9981 -1.498 -1.998 -2.497 -2.997 -3.247 
6.247 5.997 5.498 4.998 4.498 3.998 3.499 2.999 2.499 1.999 1.5 0.9999 0.5002 0.0008247 -0.4985 -0.9981 -1.498 -1.998 -2.497 -2.997 -3.247 
6.247 5.997 5.498 4.998 4.498 3.998 3.499 2.999 2.499 1.999 1.5 0.9999 0.5002 0.0008247 -0.4985 -0.9981 -1.498 -1.998 -2.497 -2.997 -3.247 
6.247 5.997 5.498 4.998 4.498 3.998 3.499 2.999 2.499 1.999 1.5 0.9999 0.5002 0.0008247 -0.4985 -0.9981 -1.498 -1.998 -2.497 -2.997 -3.247 
6.247 5.997 5.498 4.998 4.498 3.998 3.499 2.999 2.499 1.999 1.5 0.9999 0.5002 0.0008247 -0.4985 -0.9981 -1.498 -1.998 -2.497 -2.997 -3.247 
6.247 5.997 5.498 4.998 4.498 3.998 3.499 2.999 2.499 1.999 1.5 0.9999 0.5002 0.0008247 -0.4985 -0.9981 -1.498 -1.998 -2.497 -2.997 -3.247 
6.247 5.997 5.498 4.998 4.498 3.998 3.499 2.999 2.499 1.999 1.5 0.9999 0.5002 0.0008247 -0.4985 -0.9981 -1.498 -1.998 -2.497 -2.997 -3.247 
6.247 5.997 5.498 4.998 4.498 3.998 3.499 2.999 2.499 1.999 1.5 0.9999 0.5002 0.0008247 -0.4985 -0.9981 -1.498 -1.998 -2.497 -2.997 -3.247 
6.247 5.997 5.498 4.998 4.498 3.998 3.499 2.999 2.499 1.999 1.5 0.9999 0.5002 0.0008247 -0.4985 -0.9981 -1.498 -1.998 -2.497 -2.997 -3.247 
6.247 5.997 5.498 4.998 4.498 3.998 3.499 2.999 2.499 1.999 1.5 0.9999 0.5002 0.0008247 -0.4985 -0.9981 -1.498 -1.998 -2.497 -2.997 -3.247 
6.247 5.997 5.498 4.998 4.498 3.998 3.499 2.999 2.499 1.999 1.5 0.9999 0.5002 0.0008247 -0.4985 -0.9981 -1.498 -1.998 -2.497 -2.997 -3.247 
6.247 5.997 5.498 4.998 4.498 3.998 3.499 2.999 2.499 1.999 1.5 0.9999 0.5002 0.0008247 -0.4985 -0.9981 -1.498 -1.998 -2.497 -2.997 -3.247 
6.247 5.997 5.498 4.998 4.498 3.998 3.499 2.999 2.499 1.999 1.5 0.9999 0.5002 0.0008247 -0.4985 -0.9981 -1.498 -1.998 -2.497 -2.997 -3.247 
6.247 5.997 5.498 4.998 4.498 3.998 3.499 2.999 2.499 1.999 1.5 0.9999 0.5002 0.0008247 -0.4985 -0.9981 -1.498 -1.998 -2.497 -2.997 -3.247 
6.247 5.997 5.498 4.998 4.498 3.998 3.499 2.999 2.499 1.999 1.5 0.9999 0.5002 0.0008247 -0.4985 -0.9981 -1.498 -1.998 -2.497 -2.997 -3.247 
6.247 5.997 5.498 4.998 4.498 3.998 3.499 2.999 2.499 1.999 1.5 0.9999 0.5002 0.0008247 -0.4985 -0.9981 -1.498 -1.998 -2.497 -2.997 -3.247 
6.247 5.997 5.498 4.998 4.498 3.998 3.499 2.999 2.499 1.999 1.5 0.9999 0.5002 0.0008247 -0.4985 -0.9981 -1.498 -1.998 -2.497 -2.997 -3.247 
6.247 5.997 5.498 4.998 4.498 3.998 3.499 2.999 2.499 1.999 1.5 0.9999 0.5002 0.0008247 -0.4985 -0.9981 -1.498 -1.998 -2.497 -2.997 -3.247 
6.247 5.997 5.498 4.998 4.498 3.998 3.499 2.999 2.499 1.999 1.5 0.9999 0.5002 0.0008247 -0.4985 -0.9981 -1.498 -1.998 -2.497 -2.997 -3.247 
6.247 5.997 5.498 4.998 4.498 3.998 3.499 2.999 2.499 1.999 1.5 0.9999 0.5002 0.0008247 -0.4985 -0.9981 -1.498 -1.998 -2.497 -2.997 -3.247 
6.247 5.997 5.498 4.998 4.498 3.998 3.499 2.999 2.499 1.999 1.5 0.9999 0.5002 0.0008247 -0.4985 -0.9981 -1.498 -1.998 -2.497 -2.997 -3.247 
6.247 5.997 5.498 4.998 4.498 3.998 3.499 2.999 2.499 1.999 1.5 0.9999 0.5002 0.0008247 -0.4985 -0.9981 -1.498 -1.998 -2.497 -2.997 -3.247 
6.247 5.997 5.498 4.998 4.498 3.998 3.499 2.999 2.499 1.999 1.5 0.9999 0.5002 0.0008247 -0.4985 -0.9981 -1.498 -1.998 -2.497 -2.997 -3.247 
6.247 5.997 5.498 4.998 4.498 3.998 3.499 2.999 2.499 1.999 1.5 0.9999 0.5002 0.0008247 -0.4985 -0.9981 -1.498 -1.998 -2.497 -2.997 -3.247 
6.247 5.997 5.498 4.998 4.498 3.998 3.499 2.999 2.499 1.999 1.5 0.9999 0.5002 0.0008247 -0.4985 -0.9981 -1.498 -1.998 -2.497 -2.997 -3.247 
</DataArray>
<DataArray Name="ne" NumberOfComponents="1" format="ascii" type="Float64">
0.0004765 0.0004786 0.0004821 0.0004854 0.0004895 0.0004941 0.0005005 0.0005075 0.0005155 0.0005246 0.0005348 0.0005391 0.0004959 0.002092 0.0008028 0.0005747 0.0005683 0.000555 0.0005427 0.0005318 0.000527 
0.0004765 0.0004786 0.0004821 0.0004854 0.0004895 0.0004941 0.0005005 0.0005075 0.0005155 0.0005246 0.0005348 0.0005391 0.0004959 0.002092 0.0008028 0.0005747 0.0005683 0.000555 0.0005427 0.0005318 0.000527 
0.0004765 0.0004786 0.0004821 0.0004854 0.0004895 0.0004941 0.0005005 0.0005075 0.0005155 0.0005246 0.0005348 0.0005391 0.0004959 0.002092 0.0008028 0.0005747 0.0005683 0.000555 0.0005427 0.0005318 0.000527 
0.0004765 0.0004786 0.0004821 0.0004854 0.0004895 0.0004941 0.0005005 0.0005075 0.0005155 0.0005246 0.0005348 0.0005391 0.0004959 0.002092 0.0008028 0.0005747 0.0005683 0.000555 0.0005427 0.0005318 0.000527 
0.0004765 0.0004786 0.0004821 0.0004854 0.0004895 0.0004941 0.0005005 0.0005075 0.0005155 0.0005246 0.0005348 0.0005391 0.0004959 0.002092 0.0008028 0.0005747 0.0005683 0.000555 0.0005427 0.0005318 0.000527 
0.0004765 0.0004786 0.0004821 0.0004854 0.0004895 0.0004941 0.0005005 0.0005075 0.0005155 0.0005246 0.0005348 0.0005391 0.0004959 0.002092 0.0008028 0.0005747 0.0005683 0.000555 0.0005427 0.0005318 0.000527 
0.0004765 0.0004786 0.0004821 0.0004854 0.0004895 0.0004941 0.0005005 0.0005075 0.0005155 0.0005246 0.0005348 0.0005391 0.0004959 0.002092 0.0008028 0.0005747 0.0005683 0.000555 0.0005427 0.0005318 0.000527 
0.0004765 0.0004786 0.0004821 0.0004854 0.0004895 0.0004941 0.0005005 0.0005075 0.0005155 0.0005246 0.0005348 0.0005391 0.0004959 0.002092 0.0008028 0.0005747 0.0005683 0.000555 0.0005427 0.0005318 0.000527 
0.0004765 0.0004786 0.0004821 0.0004854 0.0004895 0.0004941 0.0005005 0.0005075 0.0005155 0.0005246 0.0005348 0.0005391 0.0004959 0.002092 0.0008028 0.0005747 0.0005683 0.000555 0.0005427 0.0005318 0.000527 
0.0004765 0.0004786 0.0004821 0.0004854 0.0004895 0.0004941 0.0005005 0.0005075 0.0005155 0.0005246 0.0005348 0.0005391 0.0004959 0.002092 0.0008028 0.0005747 0.0005683 0.000555 0.0005427 0.0005318 0.000527 
0.0004765 0.0004786 0.0004821 0.0004854 0.0004895 0.0004941 0.0005005 0.0005075 0.0005155 0.0005246 0.0005348 0.0005391 0.0004959 0.002092 0.0008028 0.0005747 0.0005683 0.000555 0.0005427 0.0005318 0.000527 
0.0004765 0.0004786 0.0004821 0.0004854 0.0004895 0.0004941 0.0005005 0.0005075 0.0005155 0.0005246 0.0005348 0.0005391 0.0004959 0.002092 0.0008028 0.0005747 0.0005683 0.000555 0.0005427 0.0005318 0.000527 
0.0004765 0.0004786 0.0004821 0.0004854 0.0004895 0.0004941 0.0005005 0.0005075 0.0005155 0.0005246 0.0005348 0.0005391 0.0004959 0.002092 0.0008028 0.0005747 0.0005683 0.000555 0.0005427 0.0005318 0.000527 
0.0004765 0.0004786 0.0004821 0.0004854 0.0004895 0.0004941 0.0005005 0.0005075 0.0005155 0.0005246 0.0005348 0.0005391 0.0004959 0.002092 0.0008028 0.0005747 0.0005683 0.000555 0.0005427 0.0005318 0.000527 
0.0004765 0.0004786 0.0004821 0.0004854 0.0004895 0.0004941 0.0005005 0.0005075 0.0005155 0.0005246 0.0005348 0.0005391 0.0004959 0.002092 0.0008028 0.0005747 0.0005683 0.000555 0.0005427 0.0005318 0.000527 
0.0004765 0.0004786 0.0004821 0.0004854 0.0004895 0.0004941 0.0005005 0.0005075 0.0005155 0.0005246 0.0005348 0.0005391 0.0004959 0.002092 0.0008028 0.0005747 0.0005683 0.000555 0.0005427 0.0005318 0.000527 
0.0004765 0.0004786 0.0004821 0.0004854 0.0004895 0.0004941 0.0005005 0.0005075 0.0005155 0.0005246 0.0005348 0.0005391 0.0004959 0.002092 0.0008028 0.0005747 0.0005683 0.000555 0.0005427 0.0005318 0.000527 
0.0004765 0.0004786 0.0004821 0.0004854 0.0004895 0.0004941 0.0005005 0.0005075 0.0005155 0.0005246 0.0005348 0.0005391 0.0004959 0.002092 0.0008028 0.0005747 0.0005683 0.000555 0.0005427 0.0005318 0.000527 
0.0004765 0.0004786 0.0004821 0.0004854 0.0004895 0.0004941 0.0005005 0.0005075 0.0005155 0.0005246 0.0005348 0.0005391 0.0004959 0.002092 0.0008028 0.0005747 0.0005683 0.000555 0.0005427 0.0005318 0.000527 
0.0004765 0.0004786 0.0004821 0.0004854 0.0004895 0.0004941 0.0005005 0.0005075 0.0005155 0.0005246 0.0005348 0.0005391 0.0004959 0.002092 0.0008028 0.0005747 0.0005683 0.000555 0.0005427 0.0005318 0.000527 
0.0004765 0.0004786 0.0004821 0.0004854 0.0004895 0.0004941 0.0005005 0.0005075 0.0005155 0.0005246 0.0005348 0.0005391 0.0004959 0.002092 0.0008028 0.0005747 0.0005683 0.000555 0.0005427 0.0005318 0.000527 
0.0004765 0.0004786 0.0004821 0.0004854 0.0004895 0.0004941 0.0005005 0.0005075 0.0005155 0.0005246 0.0005348 0.0005391 0.0004959 0.002092 0.0008028 0.0005747 0.0005683 0.000555 0.0005427 0.0005318 0.000527 
0.0004765 0.0004786 0.0004821 0.0004854 0.0004895 0.0004941 0.0005005 0.0005075 0.0005155 0.0005246 0.0005348 0.0005391 0.0004959 0.002092 0.0008028 0.0005747 0.0005683 0.000555 0.0005427 0.0005318 0.000527 
0.0004765 0.0004786 0.0004821 0.0004854 0.0004895 0.0004941 0.0005005 0.0005075 0.0005155 0.0005246 0.0005348 0.0005391 0.0004959 0.002092 0.0008028 0.0005747 0.0005683 0.000555 0.0005427 0.0005318 0.000527 
0.0004765 0.0004786 0.0004821 0.0004854 0.0004895 0.0004941 0.0005005 0.0005075 0.0005155 0.0005246 0.0005348 0.0005391 0.0004959 0.002092 0.0008028 0.0005747 0.0005683 0.000555 0.0005427 0.0005318 0.000527 
0.0004765 0.0004786 0.0004821 0.0004854 0.0004895 0.0004941 0.0005005 0.0005075 0.0005155 0.0005246 0.0005348 0.0005391 0.0004959 0.002092 0.0008028 0.0005747 0.0005683 0.000555 0.0005427 0.0005318 0.000527 
0.0004765 0.0004786 0.0004821 0.0004854 0.0004895 0.0004941 0.0005005 0.0005075 0.0005155 0.0005246 0.0005348 0.0005391 0.0004959 0.002092 0.0008028 0.0005747 0.0005683 0.000555 0.0005427 0.0005318 0.000527 
0.0004765 0.0004786 0.0004821 0.0004854 0.0004895 0.0004941 0.0005005 0.0005075 0.0005155 0.0005246 0.0005348 0.0005391 0.0004959 0.002092 0.0008028 0.0005747 0.0005683 0.000555 0.0005427 0.0005318 0.000527 
0.0004765 0.0004786 0.0004821 0.0004854 0.0004895 0.0004941 0.0005005 0.0005075 0.0005155 0.0005246 0.0005348 0.0005391 0.0004959 0.002092 0.0008028 0.0005747 0.0005683 0.000555 0.0005427 0.0005318 0.000527 
0.0004765 0.0004786 0.0004821 0.0004854 0.0004895 0.0004941 0.0005005 0.0005075 0.0005155 0.0005246 0.0005348 0.0005391 0.0004959 0.002092 0.0008028 0.0005747 0.0005683 0.000555 0.0005427 0.0005318 0.000527 
0.0004765 0.0004786 0.0004821 0.0004854 0.0004895 0.0004941 0.0005005 0.0005075 0.0005155 0.0005246 0.0005348 0.0005391 0.0004959 0.002092 0.0008028 0.0005747 0.0005683 0.000555 0.0005427 0.0005318 0.000527 
0.0004765 0.0004786 0.0004821 0.0004854 0.0004895 0.0004941 0.0005005 0.0005075 0.0005155 0.0005246 0.0005348 0.0005391 0.0004959 0.002092 0.0008028 0.0005747 0.0005683 0.000555 0.0005427 0.0005318 0.000527 
0.0004765 0.0004786 0.0004821 0.0004854 0.0004895 0.0004941 0.0005005 0.0005075 0.0005155 0.0005246 0.0005348 0.0005391 0.0004959 0.002092 0.0008028 0.0005747 0.0005683 0.000555 0.0005427 0.0005318 0.000527 
0.0004765 0.0004786 0.0004821 0.0004854 0.0004895 0.0004941 0.0005005 0.0005075 0.0005155 0.0005246 0.0005348 0.0005391 0.0004959 0.002092 0.0008028 0.0005747 0.0005683 0.000555 0.0005427 0.0005318 0.000527 
0.0004765 0.0004786 0.0004821 0.0004854 0.0004895 0.0004941 0.0005005 0.0005075 0.0005155 0.0005246 0.0005348 0.0005391 0.0004959 0.002092 0.0008028 0.0005747 0.0005683 0.000555 0.0005427 0.0005318 0.000527 
0.0004765 0.0004786 0.0004821 0.0004854 0.0004895 0.0004941 0.0005005 0.0005075 0.0005155 0.0005246 0.0005348 0.0005391 0.0004959 0.002092 0.0008028 0.0005747 0.0005683 0.000555 0.0005427 0.0005318 0.000527 
0.0004765 0.0004786 0.0004821 0.0004854 0.0004895 0.0004941 0.0005005 0.0005075 0.0005155 0.0005246 0.0005348 0.0005391 0.0004959 0.002092 0.0008028 0.0005747 0.0005683 0.000555 0.0005427 0.0005318 0.000527 
0.0004765 0.0004786 0.0004821 0.0004854 0.0004895 0.0004941 0.0005005 0.0005075 0.0005155 0.0005246 0.0005348 0.0005391 0.0004959 0.002092 0.0008028 0.0005747 0.0005683 0.000555 0.0005427 0.0005318 0.000527 
0.0004765 0.0004786 0.0004821 0.0004854 0.0004895 0.0004941 0.0005005 0.0005075 0.0005155 0.0005246 0.0005348 0.0005391 0.0004959 0.002092 0.0008028 0.0005747 0.0005683 0.000555 0.0005427 0.0005318 0.000527 
0.0004765 0.0004786 0.0004821 0.0004854 0.0004895 0.0004941 0.0005005 0.0005075 0.0005155 0.0005246 0.0005348 0.0005391 0.0004959 0.002092 0.0008028 0.0005747 0.0005683 0.000555 0.0005427 0.0005318 0.000527 
0.0004765 0.0004786 0.0004821 0.0004854 0.0004895 0.0004941 0.0005005 0.0005075 0.0005155 0.0005246 0.0005348 0.0005391 0.0004959 0.002092 0.0008028 0.0005747 0.0005683 0.000555 0.0005427 0.0005318 0.000527 
</DataArray>
</PointData>
</Piece>
</ImageData>
</VTKFile>
