<VTKFile type="ImageData">
<ImageData Origin="0 -10 0" Spacing="0.5 0.5 1" WholeExtent="0 20 0 40 0 0">
<Piece Extent="0 20 0 40 0 0">
<PointData>
<DataArray Name="f" NumberOfComponents="1" format="ascii" type="Float64">
5.622e-08 1.201e-09 3.954e-13 1.768e-15 0 0 0 0 0 0 0 0 0 0 0 0 0 0 0 0 0 
5.158e-06 1.741e-07 5.14e-10 6.807e-12 8.991e-17 8.153e-20 0 0 0 0 0 0 0 0 0 0 0 0 0 0 0 
9.849e-05 6.191e-06 1.274e-07 3.654e-09 1.479e-12 1.391e-14 5.528e-17 4.574e-20 0 0 0 0 0 0 0 0 0 0 0 0 0 
0.001067 0.0001464 1.116e-05 4.968e-07 1.918e-09 5.519e-11 9.988e-13 9.921e-15 4.111e-17 3.276e-20 0 0 0 0 0 0 0 0 0 0 0 
0.005208 0.001244 0.0001804 1.507e-05 4.547e-07 2.864e-08 1.303e-09 4.076e-11 8.113e-13 8.979e-15 4.177e-17 3.568e-20 0 0 0 0 0 0 0 0 0 
0.01431 0.005765 0.001523 0.0002573 2.591e-05 2.306e-06 1.877e-07 1.115e-08 4.612e-10 1.237e-11 1.894e-13 1.274e-15 1.717e-18 0 0 0 0 0 0 0 0 
0.02332 0.01459 0.006205 0.001765 0.0003289 4.808e-05 5.863e-06 5.236e-07 3.274e-08 1.334e-09 3.119e-11 3.223e-13 7.005e-16 0 0 0 0 0 0 0 0 
0.02436 0.02284 0.01486 0.006629 0.002009 0.0004531 7.944e-05 1.019e-05 9.16e-07 5.393e-08 1.839e-09 2.833e-11 9.916e-14 7.583e-19 0 0 0 0 0 0 0 
0.0168 0.02321 0.02253 0.01518 0.007056 0.002363 0.000588 0.0001066 1.356e-05 1.136e-06 5.575e-08 1.272e-09 7.199e-12 1.674e-16 0 0 0 0 0 0 0 
0.007679 0.01556 0.02228 0.02227 0.01544 0.007543 0.002661 0.0006799 0.0001219 1.446e-05 1.02e-06 3.448e-08 3.173e-10 2.25e-14 0 0 0 0 0 0 0 
0.00229 0.006852 0.01448 0.02136 0.02189 0.01555 0.007828 0.00283 0.0007167 0.0001208 1.228e-05 6.184e-07 9.313e-09 2.001e-12 1.925e-18 0 0 0 0 0 0 
0.0004308 0.001937 0.006117 0.01343 0.02043 0.02128 0.01546 0.007973 0.002874 0.0006927 0.0001023 7.743e-06 1.923e-07 1.238e-10 1.724e-15 3.43e-18 0 0 0 0 0 
4.839e-05 0.0003373 0.001633 0.005445 0.01251 0.01946 0.02075 0.01546 0.00802 0.002795 0.0006062 6.982e-05 2.89e-06 5.487e-09 6.959e-13 3.008e-15 8.812e-18 1.223e-20 0 0 0 
2.979e-06 3.389e-05 0.0002622 0.001376 0.004921 0.01177 0.01885 0.02063 0.01563 0.007991 0.002584 0.0004601 3.222e-05 1.776e-07 1.446e-10 1.214e-12 6.183e-15 1.433e-17 1.036e-20 0 0 
8.8e-08 1.773e-06 2.342e-05 0.0002049 0.001194 0.004592 0.01135 0.01862 0.02097 0.01602 0.007878 0.002214 0.0002678 4.22e-06 1.664e-08 2.489e-10 2.091e-12 7.792e-15 9.05e-18 0 0 
1.007e-09 4.083e-08 1.027e-06 1.638e-05 0.0001668 0.001102 0.004347 0.01095 0.01874 0.02188 0.01676 0.007637 0.001642 7.279e-05 1.09e-06 2.743e-08 3.684e-10 2.163e-12 3.97e-15 1.152e-18 0 
3.194e-12 2.998e-10 1.803e-08 6.043e-07 1.203e-05 0.0001509 0.000989 0.003928 0.01048 0.01922 0.02364 0.01808 0.007178 0.0008746 4.017e-05 1.658e-06 3.535e-08 3.262e-10 9.45e-13 4.386e-16 0 
1.294e-15 2.587e-13 9.303e-11 7.578e-09 3.753e-07 1.041e-05 0.0001181 0.0007635 0.003279 0.00977 0.02005 0.02686 0.02063 0.00666 0.0007909 5.437e-05 1.876e-06 2.771e-08 1.287e-10 9.717e-14 0 
0 0 6.548e-14 1.152e-11 3.981e-09 2.801e-07 5.695e-06 6.247e-05 0.0004527 0.002307 0.008347 0.0208 0.03273 0.02669 0.007503 0.0009231 5.441e-05 1.343e-06 1.038e-08 1.32e-11 0 
0 0 0 0 7.628e-12 1.162e-09 4.648e-08 9.766e-07 1.356e-05 0.0001344 0.0009753 0.005112 0.01829 0.03851 0.02902 0.007545 0.0008373 3.697e-05 5.037e-07 1.144e-09 0 
0 0 0 0 0 1.616e-20 1.62e-14 1.924e-11 2.826e-09 1.373e-07 3.294e-06 4.845e-05 0.0005014 0.004051 0.03406 0.02742 0.006673 0.0005745 1.469e-05 6.515e-08 3.261e-10 
0 0 0 0 0 0 1.577e-16 2.761e-13 5.642e-11 3.706e-09 1.179e-07 2.246e-06 2.926e-05 0.0002861 0.01196 0.02933 0.02017 0.006466 0.001198 0.0001403 1.252e-05 
0 0 0 0 0 0 1.031e-18 2.587e-15 7.208e-13 6.31e-11 2.634e-09 6.499e-08 1.078e-06 1.311e-05 0.002233 0.01504 0.02347 0.0165 0.006564 0.001609 0.0002846 
0 0 0 0 0 0 0 1.494e-17 5.565e-15 6.397e-13 3.466e-11 1.1e-09 2.323e-08 3.558e-07 0.000266 0.004594 0.01465 0.0197 0.01452 0.006501 0.002022 
0 0 0 0 0 0 0 4.954e-20 2.422e-17 3.604e-15 2.507e-13 1.014e-11 2.717e-10 5.24e-09 2.206e-05 0.0009251 0.005679 0.01364 0.01736 0.01328 0.006847 
0 0 0 0 0 0 0 0 5.465e-20 1.04e-17 9.195e-16 4.709e-14 1.59e-12 3.848e-11 1.337e-06 0.0001291 0.001469 0.006029 0.01269 0.01585 0.013 
0 0 0 0 0 0 0 0 0 1.393e-20 1.554e-18 1.001e-16 4.241e-15 1.285e-13 6.074e-08 1.278e-05 0.0002627 0.001789 0.006028 0.0119 0.01504 
0 0 0 0 0 0 0 0 0 0 0 8.685e-20 4.607e-18 1.745e-16 2.081e-09 9.088e-07 3.297e-05 0.0003644 0.001921 0.005848 0.01109 
0 0 0 0 0 0 0 0 0 0 0 0 0 8.348e-20 5.318e-11 4.643e-08 2.907e-06 5.124e-05 0.000415 0.001911 0.005329 
0 0 0 0 0 0 0 0 0 0 0 0 0 0 9.882e-13 1.694e-09 1.783e-07 4.933e-06 6.05e-05 0.000415 0.001675 
0 0 0 0 0 0 0 0 0 0 0 0 0 0 1.286e-14 4.34e-11 7.448e-09 3.184e-07 5.841e-06 5.898e-05 0.0003404 
0 0 0 0 0 0 0 0 0 0 0 0 0 0 1.111e-16 7.558e-13 2.048e-10 1.329e-08 3.607e-07 5.31e-06 4.346e-05 
0 0 0 0 0 0 0 0 0 0 0 0 0 0 5.927e-19 8.436e-15 3.511e-12 3.392e-10 1.346e-08 2.868e-07 3.316e-06 
0 0 0 0 0 0 0 0 0 0 0 0 0 0 0 5.45e-17 3.429e-14 4.831e-12 2.774e-10 8.51e-09 1.393e-07 
0 0 0 0 0 0 0 0 0 0 0 0 0 0 0 1.696e-19 1.612e-16 3.256e-14 2.685e-12 1.187e-10 2.789e-09 
0 0 0 0 0 0 0 0 0 0 0 0 0 0 0 0 2.454e-19 7.131e-17 8.552e-15 5.577e-13 1.979e-11 
0 0 0 0 0 0 0 0 0 0 0 0 0 0 0 0 0 0 1.162e-18 1.891e-16 1.66e-14 
0 0 0 0 0 0 0 0 0 0 0 0 0 0 0 0 0 0 0 0 3.98e-19 
0 0 0 0 0 0 0 0 0 0 0 0 0 0 0 0 0 0 0 0 0 
0 0 0 0 0 0 0 0 0 0 0 0 0 0 0 0 0 0 0 0 0 
0 0 0 0 0 0 0 0 0 0 0 0 0 0 0 0 0 0 0 0 0 
</DataArray>
<DataArray Name="E" NumberOfComponents="1" format="ascii" type="Float64">
6.036 5.798 5.323 4.847 4.371 3.894 3.416 2.939 2.46 1.982 1.504 1.025 0.5468 0.06781 -0.4107 -0.8882 -1.367 -1.849 -2.332 -2.817 -3.059 
6.036 5.798 5.323 4.847 4.371 3.894 3.416 2.939 2.46 1.982 1.504 1.025 0.5468 0.06781 -0.4107 -0.8882 -1.367 -1.849 -2.332 -2.817 -3.059 
6.036 5.798 5.323 4.847 4.371 3.894 3.416 2.939 2.46 1.982 1.504 1.025 0.5468 0.06781 -0.4107 -0.8882 -1.367 -1.849 -2.332 -2.817 -3.059 
6.036 5.798 5.323 4.847 4.371 3.894 3.416 2.939 2.46 1.982 1.504 1.025 0.5468 0.06781 -0.4107 -0.8882 -1.367 -1.849 -2.332 -2.817 -3.059 
6.036 5.798 5.323 4.847 4.371 3.894 3.416 2.939 2.46 1.982 1.504 1.025 0.5468 0.06781 -0.4107 -0.8882 -1.367 -1.849 -2.332 -2.817 -3.059 
6.036 5.798 5.323 4.847 4.371 3.894 3.416 2.939 2.46 1.982 1.504 1.025 0.5468 0.06781 -0.4107 -0.8882 -1.367 -1.849 -2.332 -2.817 -3.059 
6.036 5.798 5.323 4.847 4.371 3.894 3.416 2.939 2.46 1.982 1.504 1.025 0.5468 0.06781 -0.4107 -0.8882 -1.367 -1.849 -2.332 -2.817 -3.059 
6.036 5.798 5.323 4.847 4.371 3.894 3.416 2.939 2.46 1.982 1.504 1.025 0.5468 0.06781 -0.4107 -0.8882 -1.367 -1.849 -2.332 -2.817 -3.059 
6.036 5.798 5.323 4.847 4.371 3.894 3.416 2.939 2.46 1.982 1.504 1.025 0.5468 0.06781 -0.4107 -0.8882 -1.367 -1.849 -2.332 -2.817 -3.059 
6.036 5.798 5.323 4.847 4.371 3.894 3.416 2.939 2.46 1.982 1.504 1.025 0.5468 0.06781 -0.4107 -0.8882 -1.367 -1.849 -2.332 -2.817 -3.059 
6.036 5.798 5.323 4.847 4.371 3.894 3.416 2.939 2.46 1.982 1.504 1.025 0.5468 0.06781 -0.4107 -0.8882 -1.367 -1.849 -2.332 -2.817 -3.059 
6.036 5.798 5.323 4.847 4.371 3.894 3.416 2.939 2.46 1.982 1.504 1.025 0.5468 0.06781 -0.4107 -0.8882 -1.367 -1.849 -2.332 -2.817 -3.059 
6.036 5.798 5.323 4.847 4.371 3.894 3.416 2.939 2.46 1.982 1.504 1.025 0.5468 0.06781 -0.4107 -0.8882 -1.367 -1.849 -2.332 -2.817 -3.059 
6.036 5.798 5.323 4.847 4.371 3.894 3.416 2.939 2.46 1.982 1.504 1.025 0.5468 0.06781 -0.4107 -0.8882 -1.367 -1.849 -2.332 -2.817 -3.059 
6.036 5.798 5.323 4.847 4.371 3.894 3.416 2.939 2.46 1.982 1.504 1.025 0.5468 0.06781 -0.4107 -0.8882 -1.367 -1.849 -2.332 -2.817 -3.059 
6.036 5.798 5.323 4.847 4.371 3.894 3.416 2.939 2.46 1.982 1.504 1.025 0.5468 0.06781 -0.4107 -0.8882 -1.367 -1.849 -2.332 -2.817 -3.059 
6.036 5.798 5.323 4.847 4.371 3.894 3.416 2.939 2.46 1.982 1.504 1.025 0.5468 0.06781 -0.4107 -0.8882 -1.367 -1.849 -2.332 -2.817 -3.059 
6.036 5.798 5.323 4.847 4.371 3.894 3.416 2.939 2.46 1.982 1.504 1.025 0.5468 0.06781 -0.4107 -0.8882 -1.367 -1.849 -2.332 -2.817 -3.059 
6.036 5.798 5.323 4.847 4.371 3.894 3.416 2.939 2.46 1.982 1.504 1.025 0.5468 0.06781 -0.4107 -0.8882 -1.367 -1.849 -2.332 -2.817 -3.059 
6.036 5.798 5.323 4.847 4.371 3.894 3.416 2.939 2.46 1.982 1.504 1.025 0.5468 0.06781 -0.4107 -0.8882 -1.367 -1.849 -2.332 -2.817 -3.059 
6.036 5.798 5.323 4.847 4.371 3.894 3.416 2.939 2.46 1.982 1.504 1.025 0.5468 0.06781 -0.4107 -0.8882 -1.367 -1.849 -2.332 -2.817 -3.059 
6.036 5.798 5.323 4.847 4.371 3.894 3.416 2.939 2.46 1.982 1.504 1.025 0.5468 0.06781 -0.4107 -0.8882 -1.367 -1.849 -2.332 -2.817 -3.059 
6.036 5.798 5.323 4.847 4.371 3.894 3.416 2.939 2.46 1.982 1.504 1.025 0.5468 0.06781 -0.4107 -0.8882 -1.367 -1.849 -2.332 -2.817 -3.059 
6.036 5.798 5.323 4.847 4.371 3.894 3.416 2.939 2.46 1.982 1.504 1.025 0.5468 0.06781 -0.4107 -0.8882 -1.367 -1.849 -2.332 -2.817 -3.059 
6.036 5.798 5.323 4.847 4.371 3.894 3.416 2.939 2.46 1.982 1.504 1.025 0.5468 0.06781 -0.4107 -0.8882 -1.367 -1.849 -2.332 -2.817 -3.059 
6.036 5.798 5.323 4.847 4.371 3.894 3.416 2.939 2.46 1.982 1.504 1.025 0.5468 0.06781 -0.4107 -0.8882 -1.367 -1.849 -2.332 -2.817 -3.059 
6.036 5.798 5.323 4.847 4.371 3.894 3.416 2.939 2.46 1.982 1.504 1.025 0.5468 0.06781 -0.4107 -0.8882 -1.367 -1.849 -2.332 -2.817 -3.059 
6.036 5.798 5.323 4.847 4.371 3.894 3.416 2.939 2.46 1.982 1.504 1.025 0.5468 0.06781 -0.4107 -0.8882 -1.367 -1.849 -2.332 -2.817 -3.059 
6.036 5.798 5.323 4.847 4.371 3.894 3.416 2.939 2.46 1.982 1.504 1.025 0.5468 0.06781 -0.4107 -0.8882 -1.367 -1.849 -2.332 -2.817 -3.059 
6.036 5.798 5.323 4.847 4.371 3.894 3.416 2.939 2.46 1.982 1.504 1.025 0.5468 0.06781 -0.4107 -0.8882 -1.367 -1.849 -2.332 -2.817 -3.059 
6.036 5.798 5.323 4.847 4.371 3.894 3.416 2.939 2.46 1.982 1.504 1.025 0.5468 0.06781 -0.4107 -0.8882 -1.367 -1.849 -2.332 -2.817 -3.059 
6.036 5.798 5.323 4.847 4.371 3.894 3.416 2.939 2.46 1.982 1.504 1.025 0.5468 0.06781 -0.4107 -0.8882 -1.367 -1.849 -2.332 -2.817 -3.059 
6.036 5.798 5.323 4.847 4.371 3.894 3.416 2.939 2.46 1.982 1.504 1.025 0.5468 0.06781 -0.4107 -0.8882 -1.367 -1.849 -2.332 -2.817 -3.059 
6.036 5.798 5.323 4.847 4.371 3.894 3.416 2.939 2.46 1.982 1.504 1.025 0.5468 0.06781 -0.4107 -0.8882 -1.367 -1.849 -2.332 -2.817 -3.059 
6.036 5.798 5.323 4.847 4.371 3.894 3.416 2.939 2.46 1.982 1.504 1.025 0.5468 0.06781 -0.4107 -0.8882 -1.367 -1.849 -2.332 -2.817 -3.059 
6.036 5.798 5.323 4.847 4.371 3.894 3.416 2.939 2.46 1.982 1.504 1.025 0.5468 0.06781 -0.4107 -0.8882 -1.367 -1.849 -2.332 -2.817 -3.059 
6.036 5.798 5.323 4.847 4.371 3.894 3.416 2.939 2.46 1.982 1.504 1.025 0.5468 0.06781 -0.4107 -0.8882 -1.367 -1.849 -2.332 -2.817 -3.059 
6.036 5.798 5.323 4.847 4.371 3.894 3.416 2.939 2.46 1.982 1.504 1.025 0.5468 0.06781 -0.4107 -0.8882 -1.367 -1.849 -2.332 -2.817 -3.059 
6.036 5.798 5.323 4.847 4.371 3.894 3.416 2.939 2.46 1.982 1.504 1.025 0.5468 0.06781 -0.4107 -0.8882 -1.367 -1.849 -2.332 -2.817 -3.059 
6.036 5.798 5.323 4.847 4.371 3.894 3.416 2.939 2.46 1.982 1.504 1.025 0.5468 0.06781 -0.4107 -0.8882 -1.367 -1.849 -2.332 -2.817 -3.059 
6.036 5.798 5.323 4.847 4.371 3.894 3.416 2.939 2.46 1.982 1.504 1.025 0.5468 0.06781 -0.4107 -0.8882 -1.367 -1.849 -2.332 -2.817 -3.059 
</DataArray>
<DataArray Name="ne" NumberOfComponents="1" format="ascii" type="Float64">
0.05199 0.05037 0.04896 0.04764 0.04647 0.04544 0.04462 0.04395 0.04346 0.04317 0.04308 0.04316 0.04311 0.04098 0.04478 0.04539 0.03898 0.03447 0.03203 0.03024 0.02919 
0.05199 0.05037 0.04896 0.04764 0.04647 0.04544 0.04462 0.04395 0.04346 0.04317 0.04308 0.04316 0.04311 0.04098 0.04478 0.04539 0.03898 0.03447 0.03203 0.03024 0.02919 
0.05199 0.05037 0.04896 0.04764 0.04647 0.04544 0.04462 0.04395 0.04346 0.04317 0.04308 0.04316 0.04311 0.04098 0.04478 0.04539 0.03898 0.03447 0.03203 0.03024 0.02919 
0.05199 0.05037 0.04896 0.04764 0.04647 0.04544 0.04462 0.04395 0.04346 0.04317 0.04308 0.04316 0.04311 0.04098 0.04478 0.04539 0.03898 0.03447 0.03203 0.03024 0.02919 
0.05199 0.05037 0.04896 0.04764 0.04647 0.04544 0.04462 0.04395 0.04346 0.04317 0.04308 0.04316 0.04311 0.04098 0.04478 0.04539 0.03898 0.03447 0.03203 0.03024 0.02919 
0.05199 0.05037 0.04896 0.04764 0.04647 0.04544 0.04462 0.04395 0.04346 0.04317 0.04308 0.04316 0.04311 0.04098 0.04478 0.04539 0.03898 0.03447 0.03203 0.03024 0.02919 
0.05199 0.05037 0.04896 0.04764 0.04647 0.04544 0.04462 0.04395 0.04346 0.04317 0.04308 0.04316 0.04311 0.04098 0.04478 0.04539 0.03898 0.03447 0.03203 0.03024 0.02919 
0.05199 0.05037 0.04896 0.04764 0.04647 0.04544 0.04462 0.04395 0.04346 0.04317 0.04308 0.04316 0.04311 0.04098 0.04478 0.04539 0.03898 0.03447 0.03203 0.03024 0.02919 
0.05199 0.05037 0.04896 0.04764 0.04647 0.04544 0.04462 0.04395 0.04346 0.04317 0.04308 0.04316 0.04311 0.04098 0.04478 0.04539 0.03898 0.03447 0.03203 0.03024 0.02919 
0.05199 0.05037 0.04896 0.04764 0.04647 0.04544 0.04462 0.04395 0.04346 0.04317 0.04308 0.04316 0.04311 0.04098 0.04478 0.04539 0.03898 0.03447 0.03203 0.03024 0.02919 
0.05199 0.05037 0.04896 0.04764 0.04647 0.04544 0.04462 0.04395 0.04346 0.04317 0.04308 0.04316 0.04311 0.04098 0.04478 0.04539 0.03898 0.03447 0.03203 0.03024 0.02919 
0.05199 0.05037 0.04896 0.04764 0.04647 0.04544 0.04462 0.04395 0.04346 0.04317 0.04308 0.04316 0.04311 0.04098 0.04478 0.04539 0.03898 0.03447 0.03203 0.03024 0.02919 
0.05199 0.05037 0.04896 0.04764 0.04647 0.04544 0.04462 0.04395 0.04346 0.04317 0.04308 0.04316 0.04311 0.04098 0.04478 0.04539 0.03898 0.03447 0.03203 0.03024 0.02919 
0.05199 0.05037 0.04896 0.04764 0.04647 0.04544 0.04462 0.04395 0.04346 0.04317 0.04308 0.04316 0.04311 0.04098 0.04478 0.04539 0.03898 0.03447 0.03203 0.03024 0.02919 
0.05199 0.05037 0.04896 0.04764 0.04647 0.04544 0.04462 0.04395 0.04346 0.04317 0.04308 0.04316 0.04311 0.04098 0.04478 0.04539 0.03898 0.03447 0.03203 0.03024 0.02919 
0.05199 0.05037 0.04896 0.04764 0.04647 0.04544 0.04462 0.04395 0.04346 0.04317 0.04308 0.04316 0.04311 0.04098 0.04478 0.04539 0.03898 0.03447 0.03203 0.03024 0.02919 
0.05199 0.05037 0.04896 0.04764 0.04647 0.04544 0.04462 0.04395 0.04346 0.04317 0.04308 0.04316 0.04311 0.04098 0.04478 0.04539 0.03898 0.03447 0.03203 0.03024 0.02919 
0.05199 0.05037 0.04896 0.04764 0.04647 0.04544 0.04462 0.04395 0.04346 0.04317 0.04308 0.04316 0.04311 0.04098 0.04478 0.04539 0.03898 0.03447 0.03203 0.03024 0.02919 
0.05199 0.05037 0.04896 0.04764 0.04647 0.04544 0.04462 0.04395 0.04346 0.04317 0.04308 0.04316 0.04311 0.04098 0.04478 0.04539 0.03898 0.03447 0.03203 0.03024 0.02919 
0.05199 0.05037 0.04896 0.04764 0.04647 0.04544 0.04462 0.04395 0.04346 0.04317 0.04308 0.04316 0.04311 0.04098 0.04478 0.04539 0.03898 0.03447 0.03203 0.03024 0.02919 
0.05199 0.05037 0.04896 0.04764 0.04647 0.04544 0.04462 0.04395 0.04346 0.04317 0.04308 0.04316 0.04311 0.04098 0.04478 0.04539 0.03898 0.03447 0.03203 0.03024 0.02919 
0.05199 0.05037 0.04896 0.04764 0.04647 0.04544 0.04462 0.04395 0.04346 0.04317 0.04308 0.04316 0.04311 0.04098 0.04478 0.04539 0.03898 0.03447 0.03203 0.03024 0.02919 
0.05199 0.05037 0.04896 0.04764 0.04647 0.04544 0.04462 0.04395 0.04346 0.04317 0.04308 0.04316 0.04311 0.04098 0.04478 0.04539 0.03898 0.03447 0.03203 0.03024 0.02919 
0.05199 0.05037 0.04896 0.04764 0.04647 0.04544 0.04462 0.04395 0.04346 0.04317 0.04308 0.04316 0.04311 0.04098 0.04478 0.04539 0.03898 0.03447 0.03203 0.03024 0.02919 
0.05199 0.05037 0.04896 0.04764 0.04647 0.04544 0.04462 0.04395 0.04346 0.04317 0.04308 0.04316 0.04311 0.04098 0.04478 0.04539 0.03898 0.03447 0.03203 0.03024 0.02919 
0.05199 0.05037 0.04896 0.04764 0.04647 0.04544 0.04462 0.04395 0.04346 0.04317 0.04308 0.04316 0.04311 0.04098 0.04478 0.04539 0.03898 0.03447 0.03203 0.03024 0.02919 
0.05199 0.05037 0.04896 0.04764 0.04647 0.04544 0.04462 0.04395 0.04346 0.04317 0.04308 0.04316 0.04311 0.04098 0.04478 0.04539 0.03898 0.03447 0.03203 0.03024 0.02919 
0.05199 0.05037 0.04896 0.04764 0.04647 0.04544 0.04462 0.04395 0.04346 0.04317 0.04308 0.04316 0.04311 0.04098 0.04478 0.04539 0.03898 0.03447 0.03203 0.03024 0.02919 
0.05199 0.05037 0.04896 0.04764 0.04647 0.04544 0.04462 0.04395 0.04346 0.04317 0.04308 0.04316 0.04311 0.04098 0.04478 0.04539 0.03898 0.03447 0.03203 0.03024 0.02919 
0.05199 0.05037 0.04896 0.04764 0.04647 0.04544 0.04462 0.04395 0.04346 0.04317 0.04308 0.04316 0.04311 0.04098 0.04478 0.04539 0.03898 0.03447 0.03203 0.03024 0.02919 
0.05199 0.05037 0.04896 0.04764 0.04647 0.04544 0.04462 0.04395 0.04346 0.04317 0.04308 0.04316 0.04311 0.04098 0.04478 0.04539 0.03898 0.03447 0.03203 0.03024 0.02919 
0.05199 0.05037 0.04896 0.04764 0.04647 0.04544 0.04462 0.04395 0.04346 0.04317 0.04308 0.04316 0.04311 0.04098 0.04478 0.04539 0.03898 0.03447 0.03203 0.03024 0.02919 
0.05199 0.05037 0.04896 0.04764 0.04647 0.04544 0.04462 0.04395 0.04346 0.04317 0.04308 0.04316 0.04311 0.04098 0.04478 0.04539 0.03898 0.03447 0.03203 0.03024 0.02919 
0.05199 0.05037 0.04896 0.04764 0.04647 0.04544 0.04462 0.04395 0.04346 0.04317 0.04308 0.04316 0.04311 0.04098 0.04478 0.04539 0.03898 0.03447 0.03203 0.03024 0.02919 
0.05199 0.05037 0.04896 0.04764 0.04647 0.04544 0.04462 0.04395 0.04346 0.04317 0.04308 0.04316 0.04311 0.04098 0.04478 0.04539 0.03898 0.03447 0.03203 0.03024 0.02919 
0.05199 0.05037 0.04896 0.04764 0.04647 0.04544 0.04462 0.04395 0.04346 0.04317 0.04308 0.04316 0.04311 0.04098 0.04478 0.04539 0.03898 0.03447 0.03203 0.03024 0.02919 
0.05199 0.05037 0.04896 0.04764 0.04647 0.04544 0.04462 0.04395 0.04346 0.04317 0.04308 0.04316 0.04311 0.04098 0.04478 0.04539 0.03898 0.03447 0.03203 0.03024 0.02919 
0.05199 0.05037 0.04896 0.04764 0.04647 0.04544 0.04462 0.04395 0.04346 0.04317 0.04308 0.04316 0.04311 0.04098 0.04478 0.04539 0.03898 0.03447 0.03203 0.03024 0.02919 
0.05199 0.05037 0.04896 0.04764 0.04647 0.04544 0.04462 0.04395 0.04346 0.04317 0.04308 0.04316 0.04311 0.04098 0.04478 0.04539 0.03898 0.03447 0.03203 0.03024 0.02919 
0.05199 0.05037 0.04896 0.04764 0.04647 0.04544 0.04462 0.04395 0.04346 0.04317 0.04308 0.04316 0.04311 0.04098 0.04478 0.04539 0.03898 0.03447 0.03203 0.03024 0.02919 
0.05199 0.05037 0.04896 0.04764 0.04647 0.04544 0.04462 0.04395 0.04346 0.04317 0.04308 0.04316 0.04311 0.04098 0.04478 0.04539 0.03898 0.03447 0.03203 0.03024 0.02919 
</DataArray>
</PointData>
</Piece>
</ImageData>
</VTKFile>
