<VTKFile type="ImageData">
<ImageData Origin="0 -10 0" Spacing="0.5 0.5 1" WholeExtent="0 20 0 40 0 0">
<Piece Extent="0 20 0 40 0 0">
<PointData>
<DataArray Name="f" NumberOfComponents="1" format="ascii" type="Float64">
3.87e-10 6.622e-12 2.618e-16 5.911e-19 0 0 0 0 0 0 0 0 0 0 0 0 0 0 0 0 0 
1.174e-07 2.662e-09 1.478e-12 1.381e-14 0 0 0 0 0 0 0 0 0 0 0 0 0 0 0 0 0 
2.89e-06 1.3e-07 1.008e-09 2.318e-11 1.339e-15 6.045e-18 0 0 0 0 0 0 0 0 0 0 0 0 0 0 0 
4.216e-05 4.692e-06 2.685e-07 8.13e-09 6.638e-12 1.25e-13 1.362e-15 6.955e-18 1.001e-20 0 0 0 0 0 0 0 0 0 0 0 0 
0.0002465 4.891e-05 5.543e-06 3.356e-07 3.983e-09 1.85e-10 6.025e-12 1.29e-13 1.628e-15 9.87e-18 1.742e-20 0 0 0 0 0 0 0 0 0 0 
0.0008007 0.0002767 6.008e-05 7.96e-06 5.371e-07 2.863e-08 1.759e-09 7.66e-11 2.224e-12 3.893e-14 3.384e-16 9.131e-19 0 0 0 0 0 0 0 0 0 
0.001515 0.0008301 0.0002975 6.836e-05 9.271e-06 9.219e-07 8.603e-08 5.7e-09 2.526e-10 6.765e-12 9.041e-14 3.84e-16 9.78e-20 0 0 0 0 0 0 0 0 
0.001828 0.001528 0.0008558 0.0003165 7.406e-05 1.238e-05 1.682e-06 1.619e-07 1.044e-08 4.093e-10 8.128e-12 5.364e-14 2.603e-17 0 0 0 0 0 0 0 0 
0.001455 0.001824 0.001555 0.0008901 0.0003342 8.766e-05 1.712e-05 2.36e-06 2.182e-07 1.236e-08 3.616e-10 3.702e-12 3.427e-15 0 0 0 0 0 0 0 0 
0.0007681 0.001438 0.001842 0.001598 0.0009257 0.0003673 0.000103 2.029e-05 2.683e-06 2.191e-07 9.435e-09 1.502e-10 2.653e-13 0 0 0 0 0 0 0 0 
0.0002644 0.0007435 0.001431 0.001866 0.001639 0.0009696 0.0003935 0.0001112 2.109e-05 2.491e-06 1.585e-07 3.941e-09 1.328e-11 0 0 0 0 0 0 0 0 
5.722e-05 0.0002462 0.0007199 0.001419 0.001887 0.001666 0.000991 0.0004056 0.0001112 1.913e-05 1.813e-06 7.091e-08 4.556e-10 5.778e-20 0 0 0 0 0 0 0 
7.316e-06 4.986e-05 0.0002271 0.0006903 0.001408 0.001884 0.001674 0.001006 0.0004037 0.0001023 1.46e-05 9.067e-07 1.111e-08 3.207e-17 0 0 0 0 0 0 0 
5.007e-07 5.746e-06 4.254e-05 0.0002072 0.0006669 0.001394 0.001897 0.001707 0.001018 0.0003859 8.414e-05 8.41e-06 1.967e-07 1.256e-14 0 0 0 0 0 0 0 
1.559e-08 3.366e-07 4.331e-06 3.614e-05 0.0001919 0.000658 0.001418 0.001954 0.001769 0.001024 0.0003477 5.699e-05 2.558e-06 3.461e-12 1.063e-17 0 0 0 0 0 0 
1.616e-10 8.376e-09 2.062e-07 3.325e-06 3.107e-05 0.0001892 0.0006734 0.001464 0.002065 0.00187 0.001017 0.0002803 2.445e-05 6.609e-10 3.261e-14 3.839e-17 1.449e-20 0 0 0 0 
2.468e-13 6.485e-11 3.42e-09 1.38e-07 2.48e-06 3.078e-05 0.0001908 0.0006777 0.001537 0.002252 0.002028 0.0009759 0.0001699 8.462e-08 4.051e-11 7.726e-14 4.605e-17 0 0 0 0 
3.822e-17 6.176e-14 9.002e-12 1.953e-09 7.478e-08 2.509e-06 2.885e-05 0.0001746 0.000663 0.001641 0.002568 0.002277 0.0008358 6.819e-06 2.048e-08 6.454e-11 6.204e-14 1.216e-17 0 0 0 
0 0 2.714e-15 3.865e-12 4.186e-10 8.217e-08 1.862e-06 2.028e-05 0.0001368 0.0006087 0.001777 0.003156 0.00272 0.0003031 4.022e-06 2.259e-08 3.697e-11 1.206e-14 3.805e-19 0 0 
0 0 0 0 3.854e-13 5.139e-10 2.516e-08 5.699e-07 7.929e-06 7.335e-05 0.0004582 0.001881 0.004642 0.00534 0.0002779 3.277e-06 1e-08 5.775e-12 3.176e-16 0 0 
0 0 0 0 0 0 0 0 1.327e-17 1.718e-13 3.191e-10 1.64e-07 3.392e-05 0.003626 0.005592 0.000196 1.277e-06 1.401e-09 1.41e-13 3.011e-19 0 
0 0 0 0 0 0 0 0 1.843e-20 3.286e-16 8.287e-13 5.709e-10 1.557e-07 2.13e-05 0.005054 0.002564 0.0006923 0.0001213 1.428e-05 1.11e-06 6.284e-08 
0 0 0 0 0 0 0 0 0 3.39e-19 1.141e-15 1.04e-12 3.725e-10 6.601e-08 0.002114 0.003206 0.002083 0.0007897 0.0001927 3.073e-05 3.51e-06 
0 0 0 0 0 0 0 0 0 0 7.615e-19 9.063e-16 4.214e-13 9.643e-11 0.0005321 0.001911 0.002525 0.001807 0.0008002 0.0002282 4.574e-05 
0 0 0 0 0 0 0 0 0 0 0 3.402e-19 2.03e-16 5.944e-14 8.933e-05 0.0006981 0.001723 0.002164 0.001632 0.0007848 0.000261 
0 0 0 0 0 0 0 0 0 0 0 0 3.69e-20 1.37e-17 1.051e-05 0.0001727 0.0007559 0.001588 0.001951 0.001518 0.0008055 
0 0 0 0 0 0 0 0 0 0 0 0 0 0 8.881e-07 3.033e-05 0.0002276 0.0007724 0.001495 0.001821 0.001493 
0 0 0 0 0 0 0 0 0 0 0 0 0 0 5.443e-08 3.863e-06 4.851e-05 0.0002593 0.0007709 0.001432 0.001765 
0 0 0 0 0 0 0 0 0 0 0 0 0 0 2.415e-09 3.583e-07 7.407e-06 6.114e-05 0.0002738 0.0007599 0.001377 
0 0 0 0 0 0 0 0 0 0 0 0 0 0 7.663e-11 2.397e-08 8.064e-07 1.014e-05 6.732e-05 0.0002747 0.0007197 
0 0 0 0 0 0 0 0 0 0 0 0 0 0 1.698e-12 1.132e-09 6.146e-08 1.164e-06 1.134e-05 6.72e-05 0.0002514 
0 0 0 0 0 0 0 0 0 0 0 0 0 0 2.528e-14 3.63e-11 3.166e-09 8.971e-08 1.273e-06 1.087e-05 5.76e-05 
0 0 0 0 0 0 0 0 0 0 0 0 0 0 2.381e-16 7.446e-13 1.041e-10 4.394e-09 9.047e-08 1.109e-06 8.312e-06 
0 0 0 0 0 0 0 0 0 0 0 0 0 0 1.286e-18 8.858e-15 1.982e-12 1.247e-10 3.735e-09 6.594e-08 7.028e-07 
0 0 0 0 0 0 0 0 0 0 0 0 0 0 0 5.122e-17 1.839e-14 1.738e-12 7.662e-11 1.975e-09 3.056e-08 
0 0 0 0 0 0 0 0 0 0 0 0 0 0 0 9.646e-20 5.614e-17 8.209e-15 5.553e-13 2.189e-11 5.22e-10 
0 0 0 0 0 0 0 0 0 0 0 0 0 0 0 0 0 1.322e-18 2.819e-16 2.673e-14 1.442e-12 
0 0 0 0 0 0 0 0 0 0 0 0 0 0 0 0 0 0 0 7.491e-19 1.954e-16 
0 0 0 0 0 0 0 0 0 0 0 0 0 0 0 0 0 0 0 0 0 
0 0 0 0 0 0 0 0 0 0 0 0 0 0 0 0 0 0 0 0 0 
0 0 0 0 0 0 0 0 0 0 0 0 0 0 0 0 0 0 0 0 0 
</DataArray>
<DataArray Name="E" NumberOfComponents="1" format="ascii" type="Float64">
6.23 5.981 5.483 4.985 4.487 3.989 3.491 2.993 2.495 1.997 1.499 1.001 0.5035 0.005874 -0.4911 -0.9881 -1.486 -1.984 -2.482 -2.98 -3.229 
6.23 5.981 5.483 4.985 4.487 3.989 3.491 2.993 2.495 1.997 1.499 1.001 0.5035 0.005874 -0.4911 -0.9881 -1.486 -1.984 -2.482 -2.98 -3.229 
6.23 5.981 5.483 4.985 4.487 3.989 3.491 2.993 2.495 1.997 1.499 1.001 0.5035 0.005874 -0.4911 -0.9881 -1.486 -1.984 -2.482 -2.98 -3.229 
6.23 5.981 5.483 4.985 4.487 3.989 3.491 2.993 2.495 1.997 1.499 1.001 0.5035 0.005874 -0.4911 -0.9881 -1.486 -1.984 -2.482 -2.98 -3.229 
6.23 5.981 5.483 4.985 4.487 3.989 3.491 2.993 2.495 1.997 1.499 1.001 0.5035 0.005874 -0.4911 -0.9881 -1.486 -1.984 -2.482 -2.98 -3.229 
6.23 5.981 5.483 4.985 4.487 3.989 3.491 2.993 2.495 1.997 1.499 1.001 0.5035 0.005874 -0.4911 -0.9881 -1.486 -1.984 -2.482 -2.98 -3.229 
6.23 5.981 5.483 4.985 4.487 3.989 3.491 2.993 2.495 1.997 1.499 1.001 0.5035 0.005874 -0.4911 -0.9881 -1.486 -1.984 -2.482 -2.98 -3.229 
6.23 5.981 5.483 4.985 4.487 3.989 3.491 2.993 2.495 1.997 1.499 1.001 0.5035 0.005874 -0.4911 -0.9881 -1.486 -1.984 -2.482 -2.98 -3.229 
6.23 5.981 5.483 4.985 4.487 3.989 3.491 2.993 2.495 1.997 1.499 1.001 0.5035 0.005874 -0.4911 -0.9881 -1.486 -1.984 -2.482 -2.98 -3.229 
6.23 5.981 5.483 4.985 4.487 3.989 3.491 2.993 2.495 1.997 1.499 1.001 0.5035 0.005874 -0.4911 -0.9881 -1.486 -1.984 -2.482 -2.98 -3.229 
6.23 5.981 5.483 4.985 4.487 3.989 3.491 2.993 2.495 1.997 1.499 1.001 0.5035 0.005874 -0.4911 -0.9881 -1.486 -1.984 -2.482 -2.98 -3.229 
6.23 5.981 5.483 4.985 4.487 3.989 3.491 2.993 2.495 1.997 1.499 1.001 0.5035 0.005874 -0.4911 -0.9881 -1.486 -1.984 -2.482 -2.98 -3.229 
6.23 5.981 5.483 4.985 4.487 3.989 3.491 2.993 2.495 1.997 1.499 1.001 0.5035 0.005874 -0.4911 -0.9881 -1.486 -1.984 -2.482 -2.98 -3.229 
6.23 5.981 5.483 4.985 4.487 3.989 3.491 2.993 2.495 1.997 1.499 1.001 0.5035 0.005874 -0.4911 -0.9881 -1.486 -1.984 -2.482 -2.98 -3.229 
6.23 5.981 5.483 4.985 4.487 3.989 3.491 2.993 2.495 1.997 1.499 1.001 0.5035 0.005874 -0.4911 -0.9881 -1.486 -1.984 -2.482 -2.98 -3.229 
6.23 5.981 5.483 4.985 4.487 3.989 3.491 2.993 2.495 1.997 1.499 1.001 0.5035 0.005874 -0.4911 -0.9881 -1.486 -1.984 -2.482 -2.98 -3.229 
6.23 5.981 5.483 4.985 4.487 3.989 3.491 2.993 2.495 1.997 1.499 1.001 0.5035 0.005874 -0.4911 -0.9881 -1.486 -1.984 -2.482 -2.98 -3.229 
6.23 5.981 5.483 4.985 4.487 3.989 3.491 2.993 2.495 1.997 1.499 1.001 0.5035 0.005874 -0.4911 -0.9881 -1.486 -1.984 -2.482 -2.98 -3.229 
6.23 5.981 5.483 4.985 4.487 3.989 3.491 2.993 2.495 1.997 1.499 1.001 0.5035 0.005874 -0.4911 -0.9881 -1.486 -1.984 -2.482 -2.98 -3.229 
6.23 5.981 5.483 4.985 4.487 3.989 3.491 2.993 2.495 1.997 1.499 1.001 0.5035 0.005874 -0.4911 -0.9881 -1.486 -1.984 -2.482 -2.98 -3.229 
6.23 5.981 5.483 4.985 4.487 3.989 3.491 2.993 2.495 1.997 1.499 1.001 0.5035 0.005874 -0.4911 -0.9881 -1.486 -1.984 -2.482 -2.98 -3.229 
6.23 5.981 5.483 4.985 4.487 3.989 3.491 2.993 2.495 1.997 1.499 1.001 0.5035 0.005874 -0.4911 -0.9881 -1.486 -1.984 -2.482 -2.98 -3.229 
6.23 5.981 5.483 4.985 4.487 3.989 3.491 2.993 2.495 1.997 1.499 1.001 0.5035 0.005874 -0.4911 -0.9881 -1.486 -1.984 -2.482 -2.98 -3.229 
6.23 5.981 5.483 4.985 4.487 3.989 3.491 2.993 2.495 1.997 1.499 1.001 0.5035 0.005874 -0.4911 -0.9881 -1.486 -1.984 -2.482 -2.98 -3.229 
6.23 5.981 5.483 4.985 4.487 3.989 3.491 2.993 2.495 1.997 1.499 1.001 0.5035 0.005874 -0.4911 -0.9881 -1.486 -1.984 -2.482 -2.98 -3.229 
6.23 5.981 5.483 4.985 4.487 3.989 3.491 2.993 2.495 1.997 1.499 1.001 0.5035 0.005874 -0.4911 -0.9881 -1.486 -1.984 -2.482 -2.98 -3.229 
6.23 5.981 5.483 4.985 4.487 3.989 3.491 2.993 2.495 1.997 1.499 1.001 0.5035 0.005874 -0.4911 -0.9881 -1.486 -1.984 -2.482 -2.98 -3.229 
6.23 5.981 5.483 4.985 4.487 3.989 3.491 2.993 2.495 1.997 1.499 1.001 0.5035 0.005874 -0.4911 -0.9881 -1.486 -1.984 -2.482 -2.98 -3.229 
6.23 5.981 5.483 4.985 4.487 3.989 3.491 2.993 2.495 1.997 1.499 1.001 0.5035 0.005874 -0.4911 -0.9881 -1.486 -1.984 -2.482 -2.98 -3.229 
6.23 5.981 5.483 4.985 4.487 3.989 3.491 2.993 2.495 1.997 1.499 1.001 0.5035 0.005874 -0.4911 -0.9881 -1.486 -1.984 -2.482 -2.98 -3.229 
6.23 5.981 5.483 4.985 4.487 3.989 3.491 2.993 2.495 1.997 1.499 1.001 0.5035 0.005874 -0.4911 -0.9881 -1.486 -1.984 -2.482 -2.98 -3.229 
6.23 5.981 5.483 4.985 4.487 3.989 3.491 2.993 2.495 1.997 1.499 1.001 0.5035 0.005874 -0.4911 -0.9881 -1.486 -1.984 -2.482 -2.98 -3.229 
6.23 5.981 5.483 4.985 4.487 3.989 3.491 2.993 2.495 1.997 1.499 1.001 0.5035 0.005874 -0.4911 -0.9881 -1.486 -1.984 -2.482 -2.98 -3.229 
6.23 5.981 5.483 4.985 4.487 3.989 3.491 2.993 2.495 1.997 1.499 1.001 0.5035 0.005874 -0.4911 -0.9881 -1.486 -1.984 -2.482 -2.98 -3.229 
6.23 5.981 5.483 4.985 4.487 3.989 3.491 2.993 2.495 1.997 1.499 1.001 0.5035 0.005874 -0.4911 -0.9881 -1.486 -1.984 -2.482 -2.98 -3.229 
6.23 5.981 5.483 4.985 4.487 3.989 3.491 2.993 2.495 1.997 1.499 1.001 0.5035 0.005874 -0.4911 -0.9881 -1.486 -1.984 -2.482 -2.98 -3.229 
6.23 5.981 5.483 4.985 4.487 3.989 3.491 2.993 2.495 1.997 1.499 1.001 0.5035 0.005874 -0.4911 -0.9881 -1.486 -1.984 -2.482 -2.98 -3.229 
6.23 5.981 5.483 4.985 4.487 3.989 3.491 2.993 2.495 1.997 1.499 1.001 0.5035 0.005874 -0.4911 -0.9881 -1.486 -1.984 -2.482 -2.98 -3.229 
6.23 5.981 5.483 4.985 4.487 3.989 3.491 2.993 2.495 1.997 1.499 1.001 0.5035 0.005874 -0.4911 -0.9881 -1.486 -1.984 -2.482 -2.98 -3.229 
6.23 5.981 5.483 4.985 4.487 3.989 3.491 2.993 2.495 1.997 1.499 1.001 0.5035 0.005874 -0.4911 -0.9881 -1.486 -1.984 -2.482 -2.98 -3.229 
6.23 5.981 5.483 4.985 4.487 3.989 3.491 2.993 2.495 1.997 1.499 1.001 0.5035 0.005874 -0.4911 -0.9881 -1.486 -1.984 -2.482 -2.98 -3.229 
</DataArray>
<DataArray Name="ne" NumberOfComponents="1" format="ascii" type="Float64">
0.003697 0.003712 0.003739 0.003768 0.003806 0.003852 0.003918 0.003998 0.004098 0.004227 0.004396 0.00458 0.00448 0.00484 0.007245 0.004643 0.004254 0.003995 0.003802 0.003656 0.003578 
0.003697 0.003712 0.003739 0.003768 0.003806 0.003852 0.003918 0.003998 0.004098 0.004227 0.004396 0.00458 0.00448 0.00484 0.007245 0.004643 0.004254 0.003995 0.003802 0.003656 0.003578 
0.003697 0.003712 0.003739 0.003768 0.003806 0.003852 0.003918 0.003998 0.004098 0.004227 0.004396 0.00458 0.00448 0.00484 0.007245 0.004643 0.004254 0.003995 0.003802 0.003656 0.003578 
0.003697 0.003712 0.003739 0.003768 0.003806 0.003852 0.003918 0.003998 0.004098 0.004227 0.004396 0.00458 0.00448 0.00484 0.007245 0.004643 0.004254 0.003995 0.003802 0.003656 0.003578 
0.003697 0.003712 0.003739 0.003768 0.003806 0.003852 0.003918 0.003998 0.004098 0.004227 0.004396 0.00458 0.00448 0.00484 0.007245 0.004643 0.004254 0.003995 0.003802 0.003656 0.003578 
0.003697 0.003712 0.003739 0.003768 0.003806 0.003852 0.003918 0.003998 0.004098 0.004227 0.004396 0.00458 0.00448 0.00484 0.007245 0.004643 0.004254 0.003995 0.003802 0.003656 0.003578 
0.003697 0.003712 0.003739 0.003768 0.003806 0.003852 0.003918 0.003998 0.004098 0.004227 0.004396 0.00458 0.00448 0.00484 0.007245 0.004643 0.004254 0.003995 0.003802 0.003656 0.003578 
0.003697 0.003712 0.003739 0.003768 0.003806 0.003852 0.003918 0.003998 0.004098 0.004227 0.004396 0.00458 0.00448 0.00484 0.007245 0.004643 0.004254 0.003995 0.003802 0.003656 0.003578 
0.003697 0.003712 0.003739 0.003768 0.003806 0.003852 0.003918 0.003998 0.004098 0.004227 0.004396 0.00458 0.00448 0.00484 0.007245 0.004643 0.004254 0.003995 0.003802 0.003656 0.003578 
0.003697 0.003712 0.003739 0.003768 0.003806 0.003852 0.003918 0.003998 0.004098 0.004227 0.004396 0.00458 0.00448 0.00484 0.007245 0.004643 0.004254 0.003995 0.003802 0.003656 0.003578 
0.003697 0.003712 0.003739 0.003768 0.003806 0.003852 0.003918 0.003998 0.004098 0.004227 0.004396 0.00458 0.00448 0.00484 0.007245 0.004643 0.004254 0.003995 0.003802 0.003656 0.003578 
0.003697 0.003712 0.003739 0.003768 0.003806 0.003852 0.003918 0.003998 0.004098 0.004227 0.004396 0.00458 0.00448 0.00484 0.007245 0.004643 0.004254 0.003995 0.003802 0.003656 0.003578 
0.003697 0.003712 0.003739 0.003768 0.003806 0.003852 0.003918 0.003998 0.004098 0.004227 0.004396 0.00458 0.00448 0.00484 0.007245 0.004643 0.004254 0.003995 0.003802 0.003656 0.003578 
0.003697 0.003712 0.003739 0.003768 0.003806 0.003852 0.003918 0.003998 0.004098 0.004227 0.004396 0.00458 0.00448 0.00484 0.007245 0.004643 0.004254 0.003995 0.003802 0.003656 0.003578 
0.003697 0.003712 0.003739 0.003768 0.003806 0.003852 0.003918 0.003998 0.004098 0.004227 0.004396 0.00458 0.00448 0.00484 0.007245 0.004643 0.004254 0.003995 0.003802 0.003656 0.003578 
0.003697 0.003712 0.003739 0.003768 0.003806 0.003852 0.003918 0.003998 0.004098 0.004227 0.004396 0.00458 0.00448 0.00484 0.007245 0.004643 0.004254 0.003995 0.003802 0.003656 0.003578 
0.003697 0.003712 0.003739 0.003768 0.003806 0.003852 0.003918 0.003998 0.004098 0.004227 0.004396 0.00458 0.00448 0.00484 0.007245 0.004643 0.004254 0.003995 0.003802 0.003656 0.003578 
0.003697 0.003712 0.003739 0.003768 0.003806 0.003852 0.003918 0.003998 0.004098 0.004227 0.004396 0.00458 0.00448 0.00484 0.007245 0.004643 0.004254 0.003995 0.003802 0.003656 0.003578 
0.003697 0.003712 0.003739 0.003768 0.003806 0.003852 0.003918 0.003998 0.004098 0.004227 0.004396 0.00458 0.00448 0.00484 0.007245 0.004643 0.004254 0.003995 0.003802 0.003656 0.003578 
0.003697 0.003712 0.003739 0.003768 0.003806 0.003852 0.003918 0.003998 0.004098 0.004227 0.004396 0.00458 0.00448 0.00484 0.007245 0.004643 0.004254 0.003995 0.003802 0.003656 0.003578 
0.003697 0.003712 0.003739 0.003768 0.003806 0.003852 0.003918 0.003998 0.004098 0.004227 0.004396 0.00458 0.00448 0.00484 0.007245 0.004643 0.004254 0.003995 0.003802 0.003656 0.003578 
0.003697 0.003712 0.003739 0.003768 0.003806 0.003852 0.003918 0.003998 0.004098 0.004227 0.004396 0.00458 0.00448 0.00484 0.007245 0.004643 0.004254 0.003995 0.003802 0.003656 0.003578 
0.003697 0.003712 0.003739 0.003768 0.003806 0.003852 0.003918 0.003998 0.004098 0.004227 0.004396 0.00458 0.00448 0.00484 0.007245 0.004643 0.004254 0.003995 0.003802 0.003656 0.003578 
0.003697 0.003712 0.003739 0.003768 0.003806 0.003852 0.003918 0.003998 0.004098 0.004227 0.004396 0.00458 0.00448 0.00484 0.007245 0.004643 0.004254 0.003995 0.003802 0.003656 0.003578 
0.003697 0.003712 0.003739 0.003768 0.003806 0.003852 0.003918 0.003998 0.004098 0.004227 0.004396 0.00458 0.00448 0.00484 0.007245 0.004643 0.004254 0.003995 0.003802 0.003656 0.003578 
0.003697 0.003712 0.003739 0.003768 0.003806 0.003852 0.003918 0.003998 0.004098 0.004227 0.004396 0.00458 0.00448 0.00484 0.007245 0.004643 0.004254 0.003995 0.003802 0.003656 0.003578 
0.003697 0.003712 0.003739 0.003768 0.003806 0.003852 0.003918 0.003998 0.004098 0.004227 0.004396 0.00458 0.00448 0.00484 0.007245 0.004643 0.004254 0.003995 0.003802 0.003656 0.003578 
0.003697 0.003712 0.003739 0.003768 0.003806 0.003852 0.003918 0.003998 0.004098 0.004227 0.004396 0.00458 0.00448 0.00484 0.007245 0.004643 0.004254 0.003995 0.003802 0.003656 0.003578 
0.003697 0.003712 0.003739 0.003768 0.003806 0.003852 0.003918 0.003998 0.004098 0.004227 0.004396 0.00458 0.00448 0.00484 0.007245 0.004643 0.004254 0.003995 0.003802 0.003656 0.003578 
0.003697 0.003712 0.003739 0.003768 0.003806 0.003852 0.003918 0.003998 0.004098 0.004227 0.004396 0.00458 0.00448 0.00484 0.007245 0.004643 0.004254 0.003995 0.003802 0.003656 0.003578 
0.003697 0.003712 0.003739 0.003768 0.003806 0.003852 0.003918 0.003998 0.004098 0.004227 0.004396 0.00458 0.00448 0.00484 0.007245 0.004643 0.004254 0.003995 0.003802 0.003656 0.003578 
0.003697 0.003712 0.003739 0.003768 0.003806 0.003852 0.003918 0.003998 0.004098 0.004227 0.004396 0.00458 0.00448 0.00484 0.007245 0.004643 0.004254 0.003995 0.003802 0.003656 0.003578 
0.003697 0.003712 0.003739 0.003768 0.003806 0.003852 0.003918 0.003998 0.004098 0.004227 0.004396 0.00458 0.00448 0.00484 0.007245 0.004643 0.004254 0.003995 0.003802 0.003656 0.003578 
0.003697 0.003712 0.003739 0.003768 0.003806 0.003852 0.003918 0.003998 0.004098 0.004227 0.004396 0.00458 0.00448 0.00484 0.007245 0.004643 0.004254 0.003995 0.003802 0.003656 0.003578 
0.003697 0.003712 0.003739 0.003768 0.003806 0.003852 0.003918 0.003998 0.004098 0.004227 0.004396 0.00458 0.00448 0.00484 0.007245 0.004643 0.004254 0.003995 0.003802 0.003656 0.003578 
0.003697 0.003712 0.003739 0.003768 0.003806 0.003852 0.003918 0.003998 0.004098 0.004227 0.004396 0.00458 0.00448 0.00484 0.007245 0.004643 0.004254 0.003995 0.003802 0.003656 0.003578 
0.003697 0.003712 0.003739 0.003768 0.003806 0.003852 0.003918 0.003998 0.004098 0.004227 0.004396 0.00458 0.00448 0.00484 0.007245 0.004643 0.004254 0.003995 0.003802 0.003656 0.003578 
0.003697 0.003712 0.003739 0.003768 0.003806 0.003852 0.003918 0.003998 0.004098 0.004227 0.004396 0.00458 0.00448 0.00484 0.007245 0.004643 0.004254 0.003995 0.003802 0.003656 0.003578 
0.003697 0.003712 0.003739 0.003768 0.003806 0.003852 0.003918 0.003998 0.004098 0.004227 0.004396 0.00458 0.00448 0.00484 0.007245 0.004643 0.004254 0.003995 0.003802 0.003656 0.003578 
0.003697 0.003712 0.003739 0.003768 0.003806 0.003852 0.003918 0.003998 0.004098 0.004227 0.004396 0.00458 0.00448 0.00484 0.007245 0.004643 0.004254 0.003995 0.003802 0.003656 0.003578 
0.003697 0.003712 0.003739 0.003768 0.003806 0.003852 0.003918 0.003998 0.004098 0.004227 0.004396 0.00458 0.00448 0.00484 0.007245 0.004643 0.004254 0.003995 0.003802 0.003656 0.003578 
</DataArray>
</PointData>
</Piece>
</ImageData>
</VTKFile>
