<VTKFile type="ImageData">
<ImageData Origin="0 -10 0" Spacing="0.5 0.5 1" WholeExtent="0 20 0 40 0 0">
<Piece Extent="0 20 0 40 0 0">
<PointData>
<DataArray Name="f" NumberOfComponents="1" format="ascii" type="Float64">
1.123e-06 1.123e-06 1.123e-06 1.123e-06 1.123e-06 1.123e-06 1.123e-06 1.123e-06 1.123e-06 1.123e-06 1.123e-06 1.123e-06 1.123e-06 1.123e-06 1.123e-06 1.123e-06 1.123e-06 1.123e-06 1.123e-06 1.123e-06 1.123e-06 
6.441e-06 6.441e-06 6.441e-06 6.441e-06 6.441e-06 6.441e-06 6.441e-06 6.441e-06 6.441e-06 6.441e-06 6.441e-06 6.441e-06 6.441e-06 6.441e-06 6.441e-06 6.441e-06 6.441e-06 6.441e-06 6.441e-06 6.441e-06 6.441e-06 
3.199e-05 3.199e-05 3.199e-05 3.199e-05 3.199e-05 3.199e-05 3.199e-05 3.199e-05 3.199e-05 3.199e-05 3.199e-05 3.199e-05 3.199e-05 3.199e-05 3.199e-05 3.199e-05 3.199e-05 3.199e-05 3.199e-05 3.199e-05 3.199e-05 
0.0001382 0.0001382 0.0001382 0.0001382 0.0001382 0.0001382 0.0001382 0.0001382 0.0001382 0.0001382 0.0001382 0.0001382 0.0001382 0.0001382 0.0001382 0.0001382 0.0001382 0.0001382 0.0001382 0.0001382 0.0001382 
0.0005214 0.0005214 0.0005214 0.0005214 0.0005214 0.0005214 0.0005214 0.0005214 0.0005214 0.0005214 0.0005214 0.0005214 0.0005214 0.0005214 0.0005214 0.0005214 0.0005214 0.0005214 0.0005214 0.0005214 0.0005214 
0.001724 0.001724 0.001724 0.001724 0.001724 0.001724 0.001724 0.001724 0.001724 0.001724 0.001724 0.001724 0.001724 0.001724 0.001724 0.001724 0.001724 0.001724 0.001724 0.001724 0.001724 
0.005008 0.005008 0.005008 0.005008 0.005008 0.005008 0.005008 0.005008 0.005008 0.005008 0.005008 0.005008 0.005008 0.005008 0.005008 0.005008 0.005008 0.005008 0.005008 0.005008 0.005008 
0.01281 0.01281 0.01281 0.01281 0.01281 0.01281 0.01281 0.01281 0.01281 0.01281 0.01281 0.01281 0.01281 0.01281 0.01281 0.01281 0.01281 0.01281 0.01281 0.01281 0.01281 
0.02893 0.02893 0.02893 0.02893 0.02893 0.02893 0.02893 0.02893 0.02893 0.02893 0.02893 0.02893 0.02893 0.02893 0.02893 0.02893 0.02893 0.02893 0.02893 0.02893 0.02893 
0.05769 0.05769 0.05769 0.05769 0.05769 0.05769 0.05769 0.05769 0.05769 0.05769 0.05769 0.05769 0.05769 0.05769 0.05769 0.05769 0.05769 0.05769 0.05769 0.05769 0.05769 
0.1017 0.1017 0.1017 0.1017 0.1017 0.1017 0.1017 0.1017 0.1017 0.1017 0.1017 0.1017 0.1017 0.1017 0.1017 0.1017 0.1017 0.1017 0.1017 0.1017 0.1017 
0.1585 0.1585 0.1585 0.1585 0.1585 0.1585 0.1585 0.1585 0.1585 0.1585 0.1585 0.1585 0.1585 0.1585 0.1585 0.1585 0.1585 0.1585 0.1585 0.1585 0.1585 
0.2185 0.2185 0.2185 0.2185 0.2185 0.2185 0.2185 0.2185 0.2185 0.2185 0.2185 0.2185 0.2185 0.2185 0.2185 0.2185 0.2185 0.2185 0.2185 0.2185 0.2185 
0.2659 0.2659 0.2659 0.2659 0.2659 0.2659 0.2659 0.2659 0.2659 0.2659 0.2659 0.2659 0.2659 0.2659 0.2659 0.2659 0.2659 0.2659 0.2659 0.2659 0.2659 
0.2856 0.2856 0.2856 0.2856 0.2856 0.2856 0.2856 0.2856 0.2856 0.2856 0.2856 0.2856 0.2856 0.2856 0.2856 0.2856 0.2856 0.2856 0.2856 0.2856 0.2856 
0.27 0.27 0.27 0.27 0.27 0.27 0.27 0.27 0.27 0.27 0.27 0.27 0.27 0.27 0.27 0.27 0.27 0.27 0.27 0.27 0.27 
0.2243 0.2243 0.2243 0.2243 0.2243 0.2243 0.2243 0.2243 0.2243 0.2243 0.2243 0.2243 0.2243 0.2243 0.2243 0.2243 0.2243 0.2243 0.2243 0.2243 0.2243 
0.1633 0.1633 0.1633 0.1633 0.1633 0.1633 0.1633 0.1633 0.1633 0.1633 0.1633 0.1633 0.1633 0.1633 0.1633 0.1633 0.1633 0.1633 0.1633 0.1633 0.1633 
0.1037 0.1037 0.1037 0.1037 0.1037 0.1037 0.1037 0.1037 0.1037 0.1037 0.1037 0.1037 0.1037 0.1037 0.1037 0.1037 0.1037 0.1037 0.1037 0.1037 0.1037 
0.05731 0.05731 0.05731 0.05731 0.05731 0.05731 0.05731 0.05731 0.05731 0.05731 0.05731 0.05731 0.05731 0.05731 0.05731 0.05731 0.05731 0.05731 0.05731 0.05731 0.05731 
0.0274 0.0274 0.0274 0.0274 0.0274 0.0274 0.0274 0.0274 0.0274 0.0274 0.0274 0.0274 0.0274 0.0274 0.0274 0.0274 0.0274 0.0274 0.0274 0.0274 0.0274 
0.01128 0.01128 0.01128 0.01128 0.01128 0.01128 0.01128 0.01128 0.01128 0.01128 0.01128 0.01128 0.01128 0.01128 0.01128 0.01128 0.01128 0.01128 0.01128 0.01128 0.01128 
0.003976 0.003976 0.003976 0.003976 0.003976 0.003976 0.003976 0.003976 0.003976 0.003976 0.003976 0.003976 0.003976 0.003976 0.003976 0.003976 0.003976 0.003976 0.003976 0.003976 0.003976 
0.001192 0.001192 0.001192 0.001192 0.001192 0.001192 0.001192 0.001192 0.001192 0.001192 0.001192 0.001192 0.001192 0.001192 0.001192 0.001192 0.001192 0.001192 0.001192 0.001192 0.001192 
0.0003019 0.0003019 0.0003019 0.0003019 0.0003019 0.0003019 0.0003019 0.0003019 0.0003019 0.0003019 0.0003019 0.0003019 0.0003019 0.0003019 0.0003019 0.0003019 0.0003019 0.0003019 0.0003019 0.0003019 0.0003019 
6.412e-05 6.412e-05 6.412e-05 6.412e-05 6.412e-05 6.412e-05 6.412e-05 6.412e-05 6.412e-05 6.412e-05 6.412e-05 6.412e-05 6.412e-05 6.412e-05 6.412e-05 6.412e-05 6.412e-05 6.412e-05 6.412e-05 6.412e-05 6.412e-05 
1.134e-05 1.134e-05 1.134e-05 1.134e-05 1.134e-05 1.134e-05 1.134e-05 1.134e-05 1.134e-05 1.134e-05 1.134e-05 1.134e-05 1.134e-05 1.134e-05 1.134e-05 1.134e-05 1.134e-05 1.134e-05 1.134e-05 1.134e-05 1.134e-05 
1.656e-06 1.656e-06 1.656e-06 1.656e-06 1.656e-06 1.656e-06 1.656e-06 1.656e-06 1.656e-06 1.656e-06 1.656e-06 1.656e-06 1.656e-06 1.656e-06 1.656e-06 1.656e-06 1.656e-06 1.656e-06 1.656e-06 1.656e-06 1.656e-06 
1.984e-07 1.984e-07 1.984e-07 1.984e-07 1.984e-07 1.984e-07 1.984e-07 1.984e-07 1.984e-07 1.984e-07 1.984e-07 1.984e-07 1.984e-07 1.984e-07 1.984e-07 1.984e-07 1.984e-07 1.984e-07 1.984e-07 1.984e-07 1.984e-07 
1.936e-08 1.936e-08 1.936e-08 1.936e-08 1.936e-08 1.936e-08 1.936e-08 1.936e-08 1.936e-08 1.936e-08 1.936e-08 1.936e-08 1.936e-08 1.936e-08 1.936e-08 1.936e-08 1.936e-08 1.936e-08 1.936e-08 1.936e-08 1.936e-08 
1.527e-09 1.527e-09 1.527e-09 1.527e-09 1.527e-09 1.527e-09 1.527e-09 1.527e-09 1.527e-09 1.527e-09 1.527e-09 1.527e-09 1.527e-09 1.527e-09 1.527e-09 1.527e-09 1.527e-09 1.527e-09 1.527e-09 1.527e-09 1.527e-09 
9.689e-11 9.689e-11 9.689e-11 9.689e-11 9.689e-11 9.689e-11 9.689e-11 9.689e-11 9.689e-11 9.689e-11 9.689e-11 9.689e-11 9.689e-11 9.689e-11 9.689e-11 9.689e-11 9.689e-11 9.689e-11 9.689e-11 9.689e-11 9.689e-11 
4.914e-12 4.914e-12 4.914e-12 4.914e-12 4.914e-12 4.914e-12 4.914e-12 4.914e-12 4.914e-12 4.914e-12 4.914e-12 4.914e-12 4.914e-12 4.914e-12 4.914e-12 4.914e-12 4.914e-12 4.914e-12 4.914e-12 4.914e-12 4.914e-12 
2.009e-13 2.009e-13 2.009e-13 2.009e-13 2.009e-13 2.009e-13 2.009e-13 2.009e-13 2.009e-13 2.009e-13 2.009e-13 2.009e-13 2.009e-13 2.009e-13 2.009e-13 2.009e-13 2.009e-13 2.009e-13 2.009e-13 2.009e-13 2.009e-13 
6.539e-14 6.539e-14 6.539e-14 6.539e-14 6.539e-14 6.539e-14 6.539e-14 6.539e-14 6.539e-14 6.539e-14 6.539e-14 6.539e-14 6.539e-14 6.539e-14 6.539e-14 6.539e-14 6.539e-14 6.539e-14 6.539e-14 6.539e-14 6.539e-14 
1.104e-12 1.104e-12 1.104e-12 1.104e-12 1.104e-12 1.104e-12 1.104e-12 1.104e-12 1.104e-12 1.104e-12 1.104e-12 1.104e-12 1.104e-12 1.104e-12 1.104e-12 1.104e-12 1.104e-12 1.104e-12 1.104e-12 1.104e-12 1.104e-12 
1.707e-11 1.707e-11 1.707e-11 1.707e-11 1.707e-11 1.707e-11 1.707e-11 1.707e-11 1.707e-11 1.707e-11 1.707e-11 1.707e-11 1.707e-11 1.707e-11 1.707e-11 1.707e-11 1.707e-11 1.707e-11 1.707e-11 1.707e-11 1.707e-11 
2.197e-10 2.197e-10 2.197e-10 2.197e-10 2.197e-10 2.197e-10 2.197e-10 2.197e-10 2.197e-10 2.197e-10 2.197e-10 2.197e-10 2.197e-10 2.197e-10 2.197e-10 2.197e-10 2.197e-10 2.197e-10 2.197e-10 2.197e-10 2.197e-10 
2.375e-09 2.375e-09 2.375e-09 2.375e-09 2.375e-09 2.375e-09 2.375e-09 2.375e-09 2.375e-09 2.375e-09 2.375e-09 2.375e-09 2.375e-09 2.375e-09 2.375e-09 2.375e-09 2.375e-09 2.375e-09 2.375e-09 2.375e-09 2.375e-09 
2.169e-08 2.169e-08 2.169e-08 2.169e-08 2.169e-08 2.169e-08 2.169e-08 2.169e-08 2.169e-08 2.169e-08 2.169e-08 2.169e-08 2.169e-08 2.169e-08 2.169e-08 2.169e-08 2.169e-08 2.169e-08 2.169e-08 2.169e-08 2.169e-08 
1.686e-07 1.686e-07 1.686e-07 1.686e-07 1.686e-07 1.686e-07 1.686e-07 1.686e-07 1.686e-07 1.686e-07 1.686e-07 1.686e-07 1.686e-07 1.686e-07 1.686e-07 1.686e-07 1.686e-07 1.686e-07 1.686e-07 1.686e-07 1.686e-07 
</DataArray>
<DataArray Name="E" NumberOfComponents="1" format="ascii" type="Float64">
1.5 1.5 1.5 1.5 1.5 1.5 1.5 1.5 1.5 1.5 1.5 1.5 1.5 1.5 1.5 1.5 1.5 1.5 1.5 1.5 1.5 
1.5 1.5 1.5 1.5 1.5 1.5 1.5 1.5 1.5 1.5 1.5 1.5 1.5 1.5 1.5 1.5 1.5 1.5 1.5 1.5 1.5 
1.5 1.5 1.5 1.5 1.5 1.5 1.5 1.5 1.5 1.5 1.5 1.5 1.5 1.5 1.5 1.5 1.5 1.5 1.5 1.5 1.5 
1.5 1.5 1.5 1.5 1.5 1.5 1.5 1.5 1.5 1.5 1.5 1.5 1.5 1.5 1.5 1.5 1.5 1.5 1.5 1.5 1.5 
1.5 1.5 1.5 1.5 1.5 1.5 1.5 1.5 1.5 1.5 1.5 1.5 1.5 1.5 1.5 1.5 1.5 1.5 1.5 1.5 1.5 
1.5 1.5 1.5 1.5 1.5 1.5 1.5 1.5 1.5 1.5 1.5 1.5 1.5 1.5 1.5 1.5 1.5 1.5 1.5 1.5 1.5 
1.5 1.5 1.5 1.5 1.5 1.5 1.5 1.5 1.5 1.5 1.5 1.5 1.5 1.5 1.5 1.5 1.5 1.5 1.5 1.5 1.5 
1.5 1.5 1.5 1.5 1.5 1.5 1.5 1.5 1.5 1.5 1.5 1.5 1.5 1.5 1.5 1.5 1.5 1.5 1.5 1.5 1.5 
1.5 1.5 1.5 1.5 1.5 1.5 1.5 1.5 1.5 1.5 1.5 1.5 1.5 1.5 1.5 1.5 1.5 1.5 1.5 1.5 1.5 
1.5 1.5 1.5 1.5 1.5 1.5 1.5 1.5 1.5 1.5 1.5 1.5 1.5 1.5 1.5 1.5 1.5 1.5 1.5 1.5 1.5 
1.5 1.5 1.5 1.5 1.5 1.5 1.5 1.5 1.5 1.5 1.5 1.5 1.5 1.5 1.5 1.5 1.5 1.5 1.5 1.5 1.5 
1.5 1.5 1.5 1.5 1.5 1.5 1.5 1.5 1.5 1.5 1.5 1.5 1.5 1.5 1.5 1.5 1.5 1.5 1.5 1.5 1.5 
1.5 1.5 1.5 1.5 1.5 1.5 1.5 1.5 1.5 1.5 1.5 1.5 1.5 1.5 1.5 1.5 1.5 1.5 1.5 1.5 1.5 
1.5 1.5 1.5 1.5 1.5 1.5 1.5 1.5 1.5 1.5 1.5 1.5 1.5 1.5 1.5 1.5 1.5 1.5 1.5 1.5 1.5 
1.5 1.5 1.5 1.5 1.5 1.5 1.5 1.5 1.5 1.5 1.5 1.5 1.5 1.5 1.5 1.5 1.5 1.5 1.5 1.5 1.5 
1.5 1.5 1.5 1.5 1.5 1.5 1.5 1.5 1.5 1.5 1.5 1.5 1.5 1.5 1.5 1.5 1.5 1.5 1.5 1.5 1.5 
1.5 1.5 1.5 1.5 1.5 1.5 1.5 1.5 1.5 1.5 1.5 1.5 1.5 1.5 1.5 1.5 1.5 1.5 1.5 1.5 1.5 
1.5 1.5 1.5 1.5 1.5 1.5 1.5 1.5 1.5 1.5 1.5 1.5 1.5 1.5 1.5 1.5 1.5 1.5 1.5 1.5 1.5 
1.5 1.5 1.5 1.5 1.5 1.5 1.5 1.5 1.5 1.5 1.5 1.5 1.5 1.5 1.5 1.5 1.5 1.5 1.5 1.5 1.5 
1.5 1.5 1.5 1.5 1.5 1.5 1.5 1.5 1.5 1.5 1.5 1.5 1.5 1.5 1.5 1.5 1.5 1.5 1.5 1.5 1.5 
1.5 1.5 1.5 1.5 1.5 1.5 1.5 1.5 1.5 1.5 1.5 1.5 1.5 1.5 1.5 1.5 1.5 1.5 1.5 1.5 1.5 
1.5 1.5 1.5 1.5 1.5 1.5 1.5 1.5 1.5 1.5 1.5 1.5 1.5 1.5 1.5 1.5 1.5 1.5 1.5 1.5 1.5 
1.5 1.5 1.5 1.5 1.5 1.5 1.5 1.5 1.5 1.5 1.5 1.5 1.5 1.5 1.5 1.5 1.5 1.5 1.5 1.5 1.5 
1.5 1.5 1.5 1.5 1.5 1.5 1.5 1.5 1.5 1.5 1.5 1.5 1.5 1.5 1.5 1.5 1.5 1.5 1.5 1.5 1.5 
1.5 1.5 1.5 1.5 1.5 1.5 1.5 1.5 1.5 1.5 1.5 1.5 1.5 1.5 1.5 1.5 1.5 1.5 1.5 1.5 1.5 
1.5 1.5 1.5 1.5 1.5 1.5 1.5 1.5 1.5 1.5 1.5 1.5 1.5 1.5 1.5 1.5 1.5 1.5 1.5 1.5 1.5 
1.5 1.5 1.5 1.5 1.5 1.5 1.5 1.5 1.5 1.5 1.5 1.5 1.5 1.5 1.5 1.5 1.5 1.5 1.5 1.5 1.5 
1.5 1.5 1.5 1.5 1.5 1.5 1.5 1.5 1.5 1.5 1.5 1.5 1.5 1.5 1.5 1.5 1.5 1.5 1.5 1.5 1.5 
1.5 1.5 1.5 1.5 1.5 1.5 1.5 1.5 1.5 1.5 1.5 1.5 1.5 1.5 1.5 1.5 1.5 1.5 1.5 1.5 1.5 
1.5 1.5 1.5 1.5 1.5 1.5 1.5 1.5 1.5 1.5 1.5 1.5 1.5 1.5 1.5 1.5 1.5 1.5 1.5 1.5 1.5 
1.5 1.5 1.5 1.5 1.5 1.5 1.5 1.5 1.5 1.5 1.5 1.5 1.5 1.5 1.5 1.5 1.5 1.5 1.5 1.5 1.5 
1.5 1.5 1.5 1.5 1.5 1.5 1.5 1.5 1.5 1.5 1.5 1.5 1.5 1.5 1.5 1.5 1.5 1.5 1.5 1.5 1.5 
1.5 1.5 1.5 1.5 1.5 1.5 1.5 1.5 1.5 1.5 1.5 1.5 1.5 1.5 1.5 1.5 1.5 1.5 1.5 1.5 1.5 
1.5 1.5 1.5 1.5 1.5 1.5 1.5 1.5 1.5 1.5 1.5 1.5 1.5 1.5 1.5 1.5 1.5 1.5 1.5 1.5 1.5 
1.5 1.5 1.5 1.5 1.5 1.5 1.5 1.5 1.5 1.5 1.5 1.5 1.5 1.5 1.5 1.5 1.5 1.5 1.5 1.5 1.5 
1.5 1.5 1.5 1.5 1.5 1.5 1.5 1.5 1.5 1.5 1.5 1.5 1.5 1.5 1.5 1.5 1.5 1.5 1.5 1.5 1.5 
1.5 1.5 1.5 1.5 1.5 1.5 1.5 1.5 1.5 1.5 1.5 1.5 1.5 1.5 1.5 1.5 1.5 1.5 1.5 1.5 1.5 
1.5 1.5 1.5 1.5 1.5 1.5 1.5 1.5 1.5 1.5 1.5 1.5 1.5 1.5 1.5 1.5 1.5 1.5 1.5 1.5 1.5 
1.5 1.5 1.5 1.5 1.5 1.5 1.5 1.5 1.5 1.5 1.5 1.5 1.5 1.5 1.5 1.5 1.5 1.5 1.5 1.5 1.5 
1.5 1.5 1.5 1.5 1.5 1.5 1.5 1.5 1.5 1.5 1.5 1.5 1.5 1.5 1.5 1.5 1.5 1.5 1.5 1.5 1.5 
1.5 1.5 1.5 1.5 1.5 1.5 1.5 1.5 1.5 1.5 1.5 1.5 1.5 1.5 1.5 1.5 1.5 1.5 1.5 1.5 1.5 
</DataArray>
<DataArray Name="ne" NumberOfComponents="1" format="ascii" type="Float64">
1 1 1 1 1 1 1 1 1 1 1 1 1 1 1 1 1 1 1 1 1 
1 1 1 1 1 1 1 1 1 1 1 1 1 1 1 1 1 1 1 1 1 
1 1 1 1 1 1 1 1 1 1 1 1 1 1 1 1 1 1 1 1 1 
1 1 1 1 1 1 1 1 1 1 1 1 1 1 1 1 1 1 1 1 1 
1 1 1 1 1 1 1 1 1 1 1 1 1 1 1 1 1 1 1 1 1 
1 1 1 1 1 1 1 1 1 1 1 1 1 1 1 1 1 1 1 1 1 
1 1 1 1 1 1 1 1 1 1 1 1 1 1 1 1 1 1 1 1 1 
1 1 1 1 1 1 1 1 1 1 1 1 1 1 1 1 1 1 1 1 1 
1 1 1 1 1 1 1 1 1 1 1 1 1 1 1 1 1 1 1 1 1 
1 1 1 1 1 1 1 1 1 1 1 1 1 1 1 1 1 1 1 1 1 
1 1 1 1 1 1 1 1 1 1 1 1 1 1 1 1 1 1 1 1 1 
1 1 1 1 1 1 1 1 1 1 1 1 1 1 1 1 1 1 1 1 1 
1 1 1 1 1 1 1 1 1 1 1 1 1 1 1 1 1 1 1 1 1 
1 1 1 1 1 1 1 1 1 1 1 1 1 1 1 1 1 1 1 1 1 
1 1 1 1 1 1 1 1 1 1 1 1 1 1 1 1 1 1 1 1 1 
1 1 1 1 1 1 1 1 1 1 1 1 1 1 1 1 1 1 1 1 1 
1 1 1 1 1 1 1 1 1 1 1 1 1 1 1 1 1 1 1 1 1 
1 1 1 1 1 1 1 1 1 1 1 1 1 1 1 1 1 1 1 1 1 
1 1 1 1 1 1 1 1 1 1 1 1 1 1 1 1 1 1 1 1 1 
1 1 1 1 1 1 1 1 1 1 1 1 1 1 1 1 1 1 1 1 1 
1 1 1 1 1 1 1 1 1 1 1 1 1 1 1 1 1 1 1 1 1 
1 1 1 1 1 1 1 1 1 1 1 1 1 1 1 1 1 1 1 1 1 
1 1 1 1 1 1 1 1 1 1 1 1 1 1 1 1 1 1 1 1 1 
1 1 1 1 1 1 1 1 1 1 1 1 1 1 1 1 1 1 1 1 1 
1 1 1 1 1 1 1 1 1 1 1 1 1 1 1 1 1 1 1 1 1 
1 1 1 1 1 1 1 1 1 1 1 1 1 1 1 1 1 1 1 1 1 
1 1 1 1 1 1 1 1 1 1 1 1 1 1 1 1 1 1 1 1 1 
1 1 1 1 1 1 1 1 1 1 1 1 1 1 1 1 1 1 1 1 1 
1 1 1 1 1 1 1 1 1 1 1 1 1 1 1 1 1 1 1 1 1 
1 1 1 1 1 1 1 1 1 1 1 1 1 1 1 1 1 1 1 1 1 
1 1 1 1 1 1 1 1 1 1 1 1 1 1 1 1 1 1 1 1 1 
1 1 1 1 1 1 1 1 1 1 1 1 1 1 1 1 1 1 1 1 1 
1 1 1 1 1 1 1 1 1 1 1 1 1 1 1 1 1 1 1 1 1 
1 1 1 1 1 1 1 1 1 1 1 1 1 1 1 1 1 1 1 1 1 
1 1 1 1 1 1 1 1 1 1 1 1 1 1 1 1 1 1 1 1 1 
1 1 1 1 1 1 1 1 1 1 1 1 1 1 1 1 1 1 1 1 1 
1 1 1 1 1 1 1 1 1 1 1 1 1 1 1 1 1 1 1 1 1 
1 1 1 1 1 1 1 1 1 1 1 1 1 1 1 1 1 1 1 1 1 
1 1 1 1 1 1 1 1 1 1 1 1 1 1 1 1 1 1 1 1 1 
1 1 1 1 1 1 1 1 1 1 1 1 1 1 1 1 1 1 1 1 1 
1 1 1 1 1 1 1 1 1 1 1 1 1 1 1 1 1 1 1 1 1 
</DataArray>
</PointData>
</Piece>
</ImageData>
</VTKFile>
