<VTKFile type="ImageData">
<ImageData Origin="0 -10 0" Spacing="0.5 0.5 1" WholeExtent="0 20 0 40 0 0">
<Piece Extent="0 20 0 40 0 0">
<PointData>
<DataArray Name="f" NumberOfComponents="1" format="ascii" type="Float64">
0.1966 0.1963 0.1961 0.1959 0.1958 0.1957 0.1956 0.1955 0.1954 0.1954 0.1954 0.1954 0.1954 0.1955 0.1956 0.1957 0.1958 0.196 0.1961 0.1962 0.1966 
0.1957 0.1962 0.1965 0.1968 0.1969 0.1971 0.1972 0.1974 0.1974 0.1975 0.1975 0.1975 0.1974 0.1974 0.1973 0.1972 0.197 0.1969 0.1965 0.1964 0.1957 
0.183 0.1844 0.1851 0.1858 0.1863 0.1868 0.187 0.1875 0.1875 0.1878 0.1877 0.1878 0.1875 0.1876 0.1871 0.187 0.1863 0.1861 0.185 0.1849 0.183 
0.1606 0.1627 0.1637 0.1648 0.1655 0.1664 0.1667 0.1674 0.1674 0.168 0.1676 0.1681 0.1673 0.1677 0.1666 0.1669 0.1653 0.1654 0.1634 0.1634 0.1606 
0.1321 0.1346 0.1359 0.1372 0.1381 0.1391 0.1395 0.1403 0.1404 0.141 0.1406 0.1412 0.1402 0.1408 0.1393 0.1398 0.1376 0.138 0.1353 0.1355 0.1321 
0.1019 0.1043 0.1058 0.1071 0.1081 0.109 0.1097 0.1103 0.1106 0.1109 0.1109 0.111 0.1105 0.1106 0.1095 0.1095 0.1078 0.1077 0.1053 0.1051 0.1019 
0.07347 0.07565 0.0771 0.07833 0.07935 0.08019 0.08084 0.08135 0.08168 0.08191 0.08192 0.08191 0.08159 0.08137 0.08066 0.08028 0.07906 0.0786 0.0767 0.07627 0.07347 
0.04939 0.05119 0.05249 0.0536 0.05452 0.05527 0.05586 0.05629 0.05657 0.05672 0.05673 0.05664 0.05639 0.05609 0.05554 0.05506 0.05416 0.05357 0.05215 0.0516 0.04939 
0.03086 0.03221 0.03329 0.03422 0.03501 0.03565 0.03615 0.03651 0.03674 0.03685 0.03684 0.03673 0.0365 0.03619 0.03576 0.03529 0.03461 0.03404 0.03302 0.03247 0.03086 
0.01785 0.01877 0.01958 0.0203 0.02093 0.02145 0.02187 0.02217 0.02237 0.02246 0.02245 0.02234 0.02215 0.02189 0.02154 0.02114 0.02063 0.02014 0.01943 0.01896 0.01785 
0.009531 0.01007 0.01063 0.01114 0.01159 0.01199 0.01232 0.01257 0.01274 0.01283 0.01284 0.01277 0.01263 0.01242 0.01216 0.01185 0.01148 0.0111 0.01062 0.01025 0.009531 
0.004687 0.004959 0.005294 0.005614 0.005913 0.006184 0.006421 0.006615 0.00676 0.006849 0.006881 0.006853 0.006768 0.006632 0.00645 0.006231 0.005976 0.005707 0.005392 0.005128 0.004687 
0.002121 0.002231 0.002411 0.002588 0.00276 0.002923 0.003074 0.003208 0.003317 0.003397 0.003442 0.003448 0.003413 0.003339 0.003229 0.00309 0.002926 0.00275 0.002553 0.002378 0.002121 
0.0008846 0.0009155 0.001001 0.001087 0.001173 0.001258 0.001342 0.00142 0.001491 0.00155 0.001593 0.001615 0.001613 0.001584 0.00153 0.001452 0.001357 0.00125 0.001133 0.001026 0.0008846 
0.0003413 0.0003419 0.0003778 0.0004147 0.0004525 0.0004911 0.0005303 0.0005694 0.0006075 0.0006428 0.0006731 0.0006954 0.0007065 0.0007034 0.0006844 0.0006494 0.0006004 0.0005416 0.0004768 0.0004152 0.0003413 
0.0001228 0.000116 0.0001295 0.0001437 0.0001583 0.0001736 0.0001894 0.0002058 0.0002227 0.0002396 0.000256 0.0002706 0.0002818 0.0002877 0.0002859 0.0002751 0.0002547 0.0002264 0.000193 0.0001597 0.0001228 
4.189e-05 3.568e-05 4.027e-05 4.51e-05 5.017e-05 5.55e-05 6.111e-05 6.703e-05 7.329e-05 7.99e-05 8.677e-05 9.371e-05 0.0001003 0.0001057 0.0001088 0.0001082 0.0001027 9.193e-05 7.67e-05 5.983e-05 4.189e-05 
1.39e-05 9.992e-06 1.134e-05 1.281e-05 1.438e-05 1.605e-05 1.781e-05 1.969e-05 2.17e-05 2.386e-05 2.619e-05 2.87e-05 3.136e-05 3.404e-05 3.645e-05 3.807e-05 3.809e-05 3.562e-05 3.019e-05 2.253e-05 1.39e-05 
4.626e-06 2.625e-06 2.934e-06 3.316e-06 3.743e-06 4.204e-06 4.699e-06 5.229e-06 5.799e-06 6.415e-06 7.087e-06 7.825e-06 8.642e-06 9.545e-06 1.052e-05 1.149e-05 1.226e-05 1.244e-05 1.142e-05 8.705e-06 4.626e-06 
1.564e-06 7.605e-07 7.954e-07 8.719e-07 9.679e-07 1.076e-06 1.194e-06 1.322e-06 1.46e-06 1.611e-06 1.776e-06 1.959e-06 2.164e-06 2.395e-06 2.659e-06 2.96e-06 3.294e-06 3.621e-06 3.779e-06 3.345e-06 1.564e-06 
6.024e-07 4.469e-07 4.71e-07 4.993e-07 5.232e-07 5.421e-07 5.573e-07 5.707e-07 5.838e-07 5.983e-07 6.155e-07 6.365e-07 6.627e-07 6.955e-07 7.365e-07 7.877e-07 8.516e-07 9.317e-07 1.032e-06 1.159e-06 6.024e-07 
5.607e-07 7.97e-07 9.532e-07 1.055e-06 1.111e-06 1.13e-06 1.123e-06 1.095e-06 1.053e-06 1.002e-06 9.461e-07 8.871e-07 8.275e-07 7.692e-07 7.135e-07 6.614e-07 6.142e-07 5.729e-07 5.387e-07 5.132e-07 5.607e-07 
1.442e-06 2.192e-06 2.687e-06 3.031e-06 3.244e-06 3.35e-06 3.369e-06 3.321e-06 3.22e-06 3.081e-06 2.915e-06 2.73e-06 2.533e-06 2.33e-06 2.124e-06 1.92e-06 1.719e-06 1.524e-06 1.337e-06 1.16e-06 1.442e-06 
4.492e-06 6.367e-06 7.656e-06 8.629e-06 9.293e-06 9.688e-06 9.854e-06 9.83e-06 9.652e-06 9.351e-06 8.956e-06 8.491e-06 7.973e-06 7.419e-06 6.843e-06 6.253e-06 5.66e-06 5.071e-06 4.492e-06 3.929e-06 4.492e-06 
1.357e-05 1.804e-05 2.113e-05 2.361e-05 2.542e-05 2.661e-05 2.725e-05 2.742e-05 2.719e-05 2.662e-05 2.578e-05 2.471e-05 2.348e-05 2.21e-05 2.063e-05 1.909e-05 1.75e-05 1.589e-05 1.428e-05 1.268e-05 1.357e-05 
3.882e-05 4.906e-05 5.597e-05 6.186e-05 6.629e-05 6.943e-05 7.135e-05 7.219e-05 7.208e-05 7.114e-05 6.95e-05 6.726e-05 6.453e-05 6.14e-05 5.794e-05 5.422e-05 5.031e-05 4.626e-05 4.212e-05 3.795e-05 3.882e-05 
0.0001048 0.0001272 0.0001417 0.0001547 0.0001647 0.0001722 0.0001771 0.0001797 0.0001803 0.000179 0.0001761 0.0001717 0.0001661 0.0001595 0.0001519 0.0001436 0.0001347 0.0001253 0.0001155 0.0001054 0.0001048 
0.0002659 0.0003127 0.0003412 0.0003685 0.0003894 0.0004056 0.0004168 0.0004236 0.0004261 0.0004248 0.00042 0.0004121 0.0004014 0.0003883 0.0003729 0.0003556 0.0003367 0.0003164 0.0002949 0.0002725 0.0002659 
0.000634 0.0007271 0.0007795 0.0008336 0.0008742 0.0009071 0.0009304 0.0009455 0.0009526 0.0009523 0.0009452 0.0009317 0.0009125 0.000888 0.0008588 0.0008253 0.0007879 0.0007471 0.0007033 0.0006568 0.000634 
0.00142 0.001596 0.001686 0.001788 0.001861 0.001924 0.001969 0.001999 0.002015 0.002018 0.002008 0.001987 0.001954 0.001911 0.001859 0.001798 0.001729 0.001652 0.001569 0.00148 0.00142 
0.002989 0.003304 0.003446 0.003631 0.003754 0.003867 0.003945 0.004003 0.004034 0.004044 0.004031 0.003998 0.003945 0.003874 0.003786 0.003682 0.003562 0.003428 0.003281 0.003121 0.002989 
0.005913 0.006451 0.006656 0.006977 0.007164 0.007361 0.007485 0.007588 0.007639 0.007662 0.007644 0.007596 0.007513 0.007403 0.007262 0.007095 0.006901 0.006682 0.006439 0.006172 0.005913 
0.01101 0.01188 0.01214 0.01268 0.01293 0.01326 0.01343 0.01361 0.01367 0.01372 0.01369 0.01363 0.0135 0.01334 0.01312 0.01288 0.01258 0.01225 0.01188 0.01147 0.01101 
0.01929 0.02062 0.02091 0.02178 0.02204 0.02259 0.02276 0.02307 0.02311 0.02323 0.02313 0.02309 0.02287 0.02268 0.02236 0.02204 0.0216 0.02115 0.02061 0.02003 0.01929 
0.03186 0.03375 0.03399 0.0353 0.03546 0.03638 0.03639 0.03697 0.03683 0.03714 0.03687 0.03694 0.03656 0.03641 0.03593 0.03558 0.03499 0.03445 0.03371 0.03297 0.03186 
0.04956 0.05201 0.05206 0.05398 0.0538 0.05523 0.05488 0.05587 0.05543 0.05601 0.05553 0.05577 0.05525 0.05519 0.0546 0.05426 0.05354 0.05292 0.05201 0.0511 0.04956 
0.07248 0.07545 0.0752 0.07752 0.07709 0.07876 0.07831 0.07941 0.07901 0.07964 0.07929 0.07954 0.07915 0.07906 0.07854 0.07812 0.07738 0.07662 0.0756 0.07448 0.07248 
0.09963 0.1026 0.1024 0.1044 0.1044 0.1057 0.1058 0.1066 0.1068 0.1072 0.1073 0.1074 0.1073 0.107 0.1066 0.106 0.1053 0.1043 0.1032 0.1019 0.09963 
0.1285 0.1312 0.1313 0.1331 0.1336 0.1347 0.1354 0.136 0.1365 0.1369 0.137 0.137 0.1368 0.1364 0.1359 0.1352 0.1343 0.1333 0.1321 0.1307 0.1285 
0.1562 0.159 0.1595 0.161 0.1621 0.1629 0.1635 0.1639 0.1642 0.1642 0.1641 0.1638 0.1634 0.1629 0.1623 0.1616 0.1608 0.1599 0.159 0.1579 0.1562 
0.1803 0.1828 0.1835 0.184 0.1845 0.1846 0.1847 0.1846 0.1845 0.1843 0.184 0.1838 0.1835 0.1831 0.1828 0.1825 0.1821 0.1818 0.1814 0.181 0.1803 
</DataArray>
<DataArray Name="E" NumberOfComponents="1" format="ascii" type="Float64">
1.922 1.892 1.836 1.785 1.738 1.694 1.652 1.613 1.575 1.538 1.502 1.465 1.428 1.389 1.349 1.306 1.261 1.213 1.161 1.104 1.074 
1.922 1.892 1.836 1.785 1.738 1.694 1.652 1.613 1.575 1.538 1.502 1.465 1.428 1.389 1.349 1.306 1.261 1.213 1.161 1.104 1.074 
1.922 1.892 1.836 1.785 1.738 1.694 1.652 1.613 1.575 1.538 1.502 1.465 1.428 1.389 1.349 1.306 1.261 1.213 1.161 1.104 1.074 
1.922 1.892 1.836 1.785 1.738 1.694 1.652 1.613 1.575 1.538 1.502 1.465 1.428 1.389 1.349 1.306 1.261 1.213 1.161 1.104 1.074 
1.922 1.892 1.836 1.785 1.738 1.694 1.652 1.613 1.575 1.538 1.502 1.465 1.428 1.389 1.349 1.306 1.261 1.213 1.161 1.104 1.074 
1.922 1.892 1.836 1.785 1.738 1.694 1.652 1.613 1.575 1.538 1.502 1.465 1.428 1.389 1.349 1.306 1.261 1.213 1.161 1.104 1.074 
1.922 1.892 1.836 1.785 1.738 1.694 1.652 1.613 1.575 1.538 1.502 1.465 1.428 1.389 1.349 1.306 1.261 1.213 1.161 1.104 1.074 
1.922 1.892 1.836 1.785 1.738 1.694 1.652 1.613 1.575 1.538 1.502 1.465 1.428 1.389 1.349 1.306 1.261 1.213 1.161 1.104 1.074 
1.922 1.892 1.836 1.785 1.738 1.694 1.652 1.613 1.575 1.538 1.502 1.465 1.428 1.389 1.349 1.306 1.261 1.213 1.161 1.104 1.074 
1.922 1.892 1.836 1.785 1.738 1.694 1.652 1.613 1.575 1.538 1.502 1.465 1.428 1.389 1.349 1.306 1.261 1.213 1.161 1.104 1.074 
1.922 1.892 1.836 1.785 1.738 1.694 1.652 1.613 1.575 1.538 1.502 1.465 1.428 1.389 1.349 1.306 1.261 1.213 1.161 1.104 1.074 
1.922 1.892 1.836 1.785 1.738 1.694 1.652 1.613 1.575 1.538 1.502 1.465 1.428 1.389 1.349 1.306 1.261 1.213 1.161 1.104 1.074 
1.922 1.892 1.836 1.785 1.738 1.694 1.652 1.613 1.575 1.538 1.502 1.465 1.428 1.389 1.349 1.306 1.261 1.213 1.161 1.104 1.074 
1.922 1.892 1.836 1.785 1.738 1.694 1.652 1.613 1.575 1.538 1.502 1.465 1.428 1.389 1.349 1.306 1.261 1.213 1.161 1.104 1.074 
1.922 1.892 1.836 1.785 1.738 1.694 1.652 1.613 1.575 1.538 1.502 1.465 1.428 1.389 1.349 1.306 1.261 1.213 1.161 1.104 1.074 
1.922 1.892 1.836 1.785 1.738 1.694 1.652 1.613 1.575 1.538 1.502 1.465 1.428 1.389 1.349 1.306 1.261 1.213 1.161 1.104 1.074 
1.922 1.892 1.836 1.785 1.738 1.694 1.652 1.613 1.575 1.538 1.502 1.465 1.428 1.389 1.349 1.306 1.261 1.213 1.161 1.104 1.074 
1.922 1.892 1.836 1.785 1.738 1.694 1.652 1.613 1.575 1.538 1.502 1.465 1.428 1.389 1.349 1.306 1.261 1.213 1.161 1.104 1.074 
1.922 1.892 1.836 1.785 1.738 1.694 1.652 1.613 1.575 1.538 1.502 1.465 1.428 1.389 1.349 1.306 1.261 1.213 1.161 1.104 1.074 
1.922 1.892 1.836 1.785 1.738 1.694 1.652 1.613 1.575 1.538 1.502 1.465 1.428 1.389 1.349 1.306 1.261 1.213 1.161 1.104 1.074 
1.922 1.892 1.836 1.785 1.738 1.694 1.652 1.613 1.575 1.538 1.502 1.465 1.428 1.389 1.349 1.306 1.261 1.213 1.161 1.104 1.074 
1.922 1.892 1.836 1.785 1.738 1.694 1.652 1.613 1.575 1.538 1.502 1.465 1.428 1.389 1.349 1.306 1.261 1.213 1.161 1.104 1.074 
1.922 1.892 1.836 1.785 1.738 1.694 1.652 1.613 1.575 1.538 1.502 1.465 1.428 1.389 1.349 1.306 1.261 1.213 1.161 1.104 1.074 
1.922 1.892 1.836 1.785 1.738 1.694 1.652 1.613 1.575 1.538 1.502 1.465 1.428 1.389 1.349 1.306 1.261 1.213 1.161 1.104 1.074 
1.922 1.892 1.836 1.785 1.738 1.694 1.652 1.613 1.575 1.538 1.502 1.465 1.428 1.389 1.349 1.306 1.261 1.213 1.161 1.104 1.074 
1.922 1.892 1.836 1.785 1.738 1.694 1.652 1.613 1.575 1.538 1.502 1.465 1.428 1.389 1.349 1.306 1.261 1.213 1.161 1.104 1.074 
1.922 1.892 1.836 1.785 1.738 1.694 1.652 1.613 1.575 1.538 1.502 1.465 1.428 1.389 1.349 1.306 1.261 1.213 1.161 1.104 1.074 
1.922 1.892 1.836 1.785 1.738 1.694 1.652 1.613 1.575 1.538 1.502 1.465 1.428 1.389 1.349 1.306 1.261 1.213 1.161 1.104 1.074 
1.922 1.892 1.836 1.785 1.738 1.694 1.652 1.613 1.575 1.538 1.502 1.465 1.428 1.389 1.349 1.306 1.261 1.213 1.161 1.104 1.074 
1.922 1.892 1.836 1.785 1.738 1.694 1.652 1.613 1.575 1.538 1.502 1.465 1.428 1.389 1.349 1.306 1.261 1.213 1.161 1.104 1.074 
1.922 1.892 1.836 1.785 1.738 1.694 1.652 1.613 1.575 1.538 1.502 1.465 1.428 1.389 1.349 1.306 1.261 1.213 1.161 1.104 1.074 
1.922 1.892 1.836 1.785 1.738 1.694 1.652 1.613 1.575 1.538 1.502 1.465 1.428 1.389 1.349 1.306 1.261 1.213 1.161 1.104 1.074 
1.922 1.892 1.836 1.785 1.738 1.694 1.652 1.613 1.575 1.538 1.502 1.465 1.428 1.389 1.349 1.306 1.261 1.213 1.161 1.104 1.074 
1.922 1.892 1.836 1.785 1.738 1.694 1.652 1.613 1.575 1.538 1.502 1.465 1.428 1.389 1.349 1.306 1.261 1.213 1.161 1.104 1.074 
1.922 1.892 1.836 1.785 1.738 1.694 1.652 1.613 1.575 1.538 1.502 1.465 1.428 1.389 1.349 1.306 1.261 1.213 1.161 1.104 1.074 
1.922 1.892 1.836 1.785 1.738 1.694 1.652 1.613 1.575 1.538 1.502 1.465 1.428 1.389 1.349 1.306 1.261 1.213 1.161 1.104 1.074 
1.922 1.892 1.836 1.785 1.738 1.694 1.652 1.613 1.575 1.538 1.502 1.465 1.428 1.389 1.349 1.306 1.261 1.213 1.161 1.104 1.074 
1.922 1.892 1.836 1.785 1.738 1.694 1.652 1.613 1.575 1.538 1.502 1.465 1.428 1.389 1.349 1.306 1.261 1.213 1.161 1.104 1.074 
1.922 1.892 1.836 1.785 1.738 1.694 1.652 1.613 1.575 1.538 1.502 1.465 1.428 1.389 1.349 1.306 1.261 1.213 1.161 1.104 1.074 
1.922 1.892 1.836 1.785 1.738 1.694 1.652 1.613 1.575 1.538 1.502 1.465 1.428 1.389 1.349 1.306 1.261 1.213 1.161 1.104 1.074 
1.922 1.892 1.836 1.785 1.738 1.694 1.652 1.613 1.575 1.538 1.502 1.465 1.428 1.389 1.349 1.306 1.261 1.213 1.161 1.104 1.074 
</DataArray>
<DataArray Name="ne" NumberOfComponents="1" format="ascii" type="Float64">
0.8761 0.8816 0.895 0.9006 0.9099 0.914 0.9202 0.9223 0.926 0.9261 0.9276 0.9255 0.9251 0.9208 0.9185 0.9118 0.9079 0.8984 0.8931 0.8801 0.875 
0.8761 0.8816 0.895 0.9006 0.9099 0.914 0.9202 0.9223 0.926 0.9261 0.9276 0.9255 0.9251 0.9208 0.9185 0.9118 0.9079 0.8984 0.8931 0.8801 0.875 
0.8761 0.8816 0.895 0.9006 0.9099 0.914 0.9202 0.9223 0.926 0.9261 0.9276 0.9255 0.9251 0.9208 0.9185 0.9118 0.9079 0.8984 0.8931 0.8801 0.875 
0.8761 0.8816 0.895 0.9006 0.9099 0.914 0.9202 0.9223 0.926 0.9261 0.9276 0.9255 0.9251 0.9208 0.9185 0.9118 0.9079 0.8984 0.8931 0.8801 0.875 
0.8761 0.8816 0.895 0.9006 0.9099 0.914 0.9202 0.9223 0.926 0.9261 0.9276 0.9255 0.9251 0.9208 0.9185 0.9118 0.9079 0.8984 0.8931 0.8801 0.875 
0.8761 0.8816 0.895 0.9006 0.9099 0.914 0.9202 0.9223 0.926 0.9261 0.9276 0.9255 0.9251 0.9208 0.9185 0.9118 0.9079 0.8984 0.8931 0.8801 0.875 
0.8761 0.8816 0.895 0.9006 0.9099 0.914 0.9202 0.9223 0.926 0.9261 0.9276 0.9255 0.9251 0.9208 0.9185 0.9118 0.9079 0.8984 0.8931 0.8801 0.875 
0.8761 0.8816 0.895 0.9006 0.9099 0.914 0.9202 0.9223 0.926 0.9261 0.9276 0.9255 0.9251 0.9208 0.9185 0.9118 0.9079 0.8984 0.8931 0.8801 0.875 
0.8761 0.8816 0.895 0.9006 0.9099 0.914 0.9202 0.9223 0.926 0.9261 0.9276 0.9255 0.9251 0.9208 0.9185 0.9118 0.9079 0.8984 0.8931 0.8801 0.875 
0.8761 0.8816 0.895 0.9006 0.9099 0.914 0.9202 0.9223 0.926 0.9261 0.9276 0.9255 0.9251 0.9208 0.9185 0.9118 0.9079 0.8984 0.8931 0.8801 0.875 
0.8761 0.8816 0.895 0.9006 0.9099 0.914 0.9202 0.9223 0.926 0.9261 0.9276 0.9255 0.9251 0.9208 0.9185 0.9118 0.9079 0.8984 0.8931 0.8801 0.875 
0.8761 0.8816 0.895 0.9006 0.9099 0.914 0.9202 0.9223 0.926 0.9261 0.9276 0.9255 0.9251 0.9208 0.9185 0.9118 0.9079 0.8984 0.8931 0.8801 0.875 
0.8761 0.8816 0.895 0.9006 0.9099 0.914 0.9202 0.9223 0.926 0.9261 0.9276 0.9255 0.9251 0.9208 0.9185 0.9118 0.9079 0.8984 0.8931 0.8801 0.875 
0.8761 0.8816 0.895 0.9006 0.9099 0.914 0.9202 0.9223 0.926 0.9261 0.9276 0.9255 0.9251 0.9208 0.9185 0.9118 0.9079 0.8984 0.8931 0.8801 0.875 
0.8761 0.8816 0.895 0.9006 0.9099 0.914 0.9202 0.9223 0.926 0.9261 0.9276 0.9255 0.9251 0.9208 0.9185 0.9118 0.9079 0.8984 0.8931 0.8801 0.875 
0.8761 0.8816 0.895 0.9006 0.9099 0.914 0.9202 0.9223 0.926 0.9261 0.9276 0.9255 0.9251 0.9208 0.9185 0.9118 0.9079 0.8984 0.8931 0.8801 0.875 
0.8761 0.8816 0.895 0.9006 0.9099 0.914 0.9202 0.9223 0.926 0.9261 0.9276 0.9255 0.9251 0.9208 0.9185 0.9118 0.9079 0.8984 0.8931 0.8801 0.875 
0.8761 0.8816 0.895 0.9006 0.9099 0.914 0.9202 0.9223 0.926 0.9261 0.9276 0.9255 0.9251 0.9208 0.9185 0.9118 0.9079 0.8984 0.8931 0.8801 0.875 
0.8761 0.8816 0.895 0.9006 0.9099 0.914 0.9202 0.9223 0.926 0.9261 0.9276 0.9255 0.9251 0.9208 0.9185 0.9118 0.9079 0.8984 0.8931 0.8801 0.875 
0.8761 0.8816 0.895 0.9006 0.9099 0.914 0.9202 0.9223 0.926 0.9261 0.9276 0.9255 0.9251 0.9208 0.9185 0.9118 0.9079 0.8984 0.8931 0.8801 0.875 
0.8761 0.8816 0.895 0.9006 0.9099 0.914 0.9202 0.9223 0.926 0.9261 0.9276 0.9255 0.9251 0.9208 0.9185 0.9118 0.9079 0.8984 0.8931 0.8801 0.875 
0.8761 0.8816 0.895 0.9006 0.9099 0.914 0.9202 0.9223 0.926 0.9261 0.9276 0.9255 0.9251 0.9208 0.9185 0.9118 0.9079 0.8984 0.8931 0.8801 0.875 
0.8761 0.8816 0.895 0.9006 0.9099 0.914 0.9202 0.9223 0.926 0.9261 0.9276 0.9255 0.9251 0.9208 0.9185 0.9118 0.9079 0.8984 0.8931 0.8801 0.875 
0.8761 0.8816 0.895 0.9006 0.9099 0.914 0.9202 0.9223 0.926 0.9261 0.9276 0.9255 0.9251 0.9208 0.9185 0.9118 0.9079 0.8984 0.8931 0.8801 0.875 
0.8761 0.8816 0.895 0.9006 0.9099 0.914 0.9202 0.9223 0.926 0.9261 0.9276 0.9255 0.9251 0.9208 0.9185 0.9118 0.9079 0.8984 0.8931 0.8801 0.875 
0.8761 0.8816 0.895 0.9006 0.9099 0.914 0.9202 0.9223 0.926 0.9261 0.9276 0.9255 0.9251 0.9208 0.9185 0.9118 0.9079 0.8984 0.8931 0.8801 0.875 
0.8761 0.8816 0.895 0.9006 0.9099 0.914 0.9202 0.9223 0.926 0.9261 0.9276 0.9255 0.9251 0.9208 0.9185 0.9118 0.9079 0.8984 0.8931 0.8801 0.875 
0.8761 0.8816 0.895 0.9006 0.9099 0.914 0.9202 0.9223 0.926 0.9261 0.9276 0.9255 0.9251 0.9208 0.9185 0.9118 0.9079 0.8984 0.8931 0.8801 0.875 
0.8761 0.8816 0.895 0.9006 0.9099 0.914 0.9202 0.9223 0.926 0.9261 0.9276 0.9255 0.9251 0.9208 0.9185 0.9118 0.9079 0.8984 0.8931 0.8801 0.875 
0.8761 0.8816 0.895 0.9006 0.9099 0.914 0.9202 0.9223 0.926 0.9261 0.9276 0.9255 0.9251 0.9208 0.9185 0.9118 0.9079 0.8984 0.8931 0.8801 0.875 
0.8761 0.8816 0.895 0.9006 0.9099 0.914 0.9202 0.9223 0.926 0.9261 0.9276 0.9255 0.9251 0.9208 0.9185 0.9118 0.9079 0.8984 0.8931 0.8801 0.875 
0.8761 0.8816 0.895 0.9006 0.9099 0.914 0.9202 0.9223 0.926 0.9261 0.9276 0.9255 0.9251 0.9208 0.9185 0.9118 0.9079 0.8984 0.8931 0.8801 0.875 
0.8761 0.8816 0.895 0.9006 0.9099 0.914 0.9202 0.9223 0.926 0.9261 0.9276 0.9255 0.9251 0.9208 0.9185 0.9118 0.9079 0.8984 0.8931 0.8801 0.875 
0.8761 0.8816 0.895 0.9006 0.9099 0.914 0.9202 0.9223 0.926 0.9261 0.9276 0.9255 0.9251 0.9208 0.9185 0.9118 0.9079 0.8984 0.8931 0.8801 0.875 
0.8761 0.8816 0.895 0.9006 0.9099 0.914 0.9202 0.9223 0.926 0.9261 0.9276 0.9255 0.9251 0.9208 0.9185 0.9118 0.9079 0.8984 0.8931 0.8801 0.875 
0.8761 0.8816 0.895 0.9006 0.9099 0.914 0.9202 0.9223 0.926 0.9261 0.9276 0.9255 0.9251 0.9208 0.9185 0.9118 0.9079 0.8984 0.8931 0.8801 0.875 
0.8761 0.8816 0.895 0.9006 0.9099 0.914 0.9202 0.9223 0.926 0.9261 0.9276 0.9255 0.9251 0.9208 0.9185 0.9118 0.9079 0.8984 0.8931 0.8801 0.875 
0.8761 0.8816 0.895 0.9006 0.9099 0.914 0.9202 0.9223 0.926 0.9261 0.9276 0.9255 0.9251 0.9208 0.9185 0.9118 0.9079 0.8984 0.8931 0.8801 0.875 
0.8761 0.8816 0.895 0.9006 0.9099 0.914 0.9202 0.9223 0.926 0.9261 0.9276 0.9255 0.9251 0.9208 0.9185 0.9118 0.9079 0.8984 0.8931 0.8801 0.875 
0.8761 0.8816 0.895 0.9006 0.9099 0.914 0.9202 0.9223 0.926 0.9261 0.9276 0.9255 0.9251 0.9208 0.9185 0.9118 0.9079 0.8984 0.8931 0.8801 0.875 
0.8761 0.8816 0.895 0.9006 0.9099 0.914 0.9202 0.9223 0.926 0.9261 0.9276 0.9255 0.9251 0.9208 0.9185 0.9118 0.9079 0.8984 0.8931 0.8801 0.875 
</DataArray>
</PointData>
</Piece>
</ImageData>
</VTKFile>
