<VTKFile type="ImageData">
<ImageData Origin="0 -10 0" Spacing="0.5 0.5 1" WholeExtent="0 20 0 40 0 0">
<Piece Extent="0 20 0 40 0 0">
<PointData>
<DataArray Name="f" NumberOfComponents="1" format="ascii" type="Float64">
0.001527 0.001527 0.001528 0.001528 0.001528 0.001529 0.001529 0.001529 0.001529 0.001529 0.001529 0.001529 0.001529 0.001529 0.001528 0.001528 0.001528 0.001528 0.001528 0.001528 0.001527 
0.0007942 0.0007946 0.0007948 0.0007951 0.0007953 0.0007955 0.0007957 0.0007959 0.0007961 0.0007962 0.0007963 0.0007963 0.0007963 0.0007962 0.0007961 0.0007959 0.0007956 0.0007955 0.000795 0.000795 0.0007942 
0.0003976 0.0003975 0.0003974 0.0003974 0.0003974 0.0003976 0.0003977 0.0003979 0.0003982 0.0003984 0.0003987 0.0003989 0.0003991 0.0003992 0.0003992 0.0003992 0.000399 0.0003989 0.0003984 0.0003984 0.0003976 
0.000198 0.0001976 0.0001971 0.0001968 0.0001964 0.0001962 0.000196 0.000196 0.0001961 0.0001963 0.0001967 0.000197 0.0001975 0.0001978 0.0001983 0.0001985 0.0001988 0.0001988 0.0001987 0.0001987 0.000198 
0.0001121 0.0001118 0.0001112 0.0001106 0.0001097 0.0001089 0.0001081 0.0001074 0.0001069 0.0001066 0.0001066 0.0001066 0.0001073 0.0001076 0.0001087 0.0001091 0.0001104 0.0001107 0.0001118 0.0001118 0.0001121 
9.497e-05 9.656e-05 9.689e-05 9.667e-05 9.592e-05 9.472e-05 9.318e-05 9.146e-05 8.969e-05 8.802e-05 8.665e-05 8.554e-05 8.507e-05 8.478e-05 8.552e-05 8.596e-05 8.793e-05 8.866e-05 9.152e-05 9.201e-05 9.497e-05 
0.0001271 0.0001328 0.0001361 0.0001387 0.0001403 0.0001408 0.0001401 0.0001384 0.0001358 0.0001326 0.000129 0.0001254 0.0001221 0.0001193 0.0001174 0.0001161 0.0001165 0.0001168 0.00012 0.0001209 0.0001271 
0.0002136 0.0002218 0.0002288 0.0002364 0.0002436 0.0002499 0.0002545 0.0002572 0.0002575 0.0002557 0.0002518 0.0002464 0.0002398 0.0002329 0.0002259 0.0002197 0.0002144 0.0002109 0.0002095 0.000209 0.0002136 
0.0003986 0.0003976 0.0004033 0.0004126 0.0004249 0.0004388 0.0004532 0.0004665 0.0004773 0.0004848 0.0004881 0.0004872 0.0004822 0.000474 0.0004629 0.0004509 0.0004373 0.0004258 0.0004133 0.0004067 0.0003986 
0.0007805 0.0007519 0.0007431 0.0007416 0.0007476 0.0007609 0.0007805 0.0008045 0.0008305 0.0008559 0.0008779 0.0008945 0.0009041 0.0009063 0.000901 0.0008897 0.0008723 0.0008536 0.0008285 0.0008117 0.0007805 
0.00151 0.001444 0.001408 0.001379 0.001358 0.00135 0.001354 0.001371 0.0014 0.001439 0.001483 0.001528 0.001568 0.0016 0.001621 0.001629 0.001625 0.001611 0.001584 0.001561 0.00151 
0.002765 0.00268 0.002618 0.002555 0.002496 0.002444 0.002405 0.002383 0.002381 0.002402 0.002444 0.002504 0.002575 0.002649 0.002717 0.002772 0.002808 0.002827 0.002824 0.002812 0.002765 
0.004733 0.00468 0.004615 0.004537 0.004449 0.004356 0.004264 0.00418 0.004113 0.00407 0.004059 0.004084 0.004144 0.004235 0.004345 0.004459 0.004563 0.004647 0.004704 0.004734 0.004733 
0.007624 0.007671 0.007638 0.00758 0.007499 0.007398 0.007279 0.007149 0.007015 0.006889 0.006783 0.006713 0.00669 0.006724 0.006814 0.006951 0.007114 0.007279 0.007425 0.007534 0.007624 
0.0117 0.01191 0.01194 0.01194 0.01191 0.01185 0.01175 0.01162 0.01147 0.0113 0.01111 0.01093 0.01078 0.01068 0.01065 0.01071 0.01085 0.01106 0.01129 0.0115 0.0117 
0.01734 0.01773 0.01784 0.01792 0.01796 0.01797 0.01794 0.01787 0.01776 0.0176 0.01741 0.01719 0.01694 0.01671 0.01651 0.01639 0.01639 0.01651 0.01674 0.01702 0.01734 
0.025 0.02554 0.02572 0.02587 0.02598 0.02607 0.02612 0.02613 0.0261 0.02602 0.02589 0.02571 0.02547 0.02519 0.02489 0.0246 0.02437 0.02428 0.02437 0.02462 0.025 
0.03513 0.03574 0.03594 0.03613 0.03629 0.03644 0.03655 0.03664 0.0367 0.03671 0.03667 0.03658 0.03643 0.03621 0.03592 0.03558 0.03522 0.03491 0.03473 0.0348 0.03513 
0.04802 0.04857 0.04876 0.04894 0.04911 0.04927 0.04942 0.04955 0.04966 0.04974 0.04979 0.04979 0.04974 0.04963 0.04944 0.04918 0.04884 0.04845 0.04807 0.04786 0.04802 
0.06357 0.06396 0.06411 0.06425 0.06438 0.06452 0.06465 0.06479 0.06491 0.06502 0.06512 0.06518 0.06521 0.06519 0.06511 0.06497 0.06474 0.06443 0.06405 0.06365 0.06357 
0.08117 0.08137 0.08146 0.08154 0.08163 0.08172 0.08181 0.08191 0.08202 0.08212 0.08222 0.0823 0.08237 0.0824 0.0824 0.08235 0.08224 0.08206 0.08179 0.08142 0.08117 
0.09973 0.09978 0.09982 0.09985 0.09989 0.09994 0.09999 0.1 0.1001 0.1002 0.1003 0.1003 0.1004 0.1004 0.1005 0.1005 0.1004 0.1003 0.1002 0.09998 0.09973 
0.1178 0.1178 0.1178 0.1178 0.1178 0.1178 0.1179 0.1179 0.1179 0.1179 0.118 0.118 0.1181 0.1181 0.1181 0.1182 0.1182 0.1181 0.1181 0.1179 0.1178 
0.1338 0.1338 0.1338 0.1338 0.1338 0.1338 0.1338 0.1338 0.1339 0.1339 0.1339 0.1339 0.1339 0.1339 0.134 0.134 0.134 0.134 0.134 0.1339 0.1338 
0.1464 0.1464 0.1464 0.1464 0.1464 0.1464 0.1464 0.1464 0.1464 0.1464 0.1464 0.1464 0.1464 0.1464 0.1464 0.1464 0.1464 0.1464 0.1464 0.1464 0.1464 
0.1542 0.1542 0.1542 0.1542 0.1542 0.1542 0.1542 0.1542 0.1541 0.1541 0.1541 0.1541 0.1541 0.1541 0.1541 0.1541 0.1541 0.1541 0.1541 0.1541 0.1542 
0.1563 0.1563 0.1563 0.1563 0.1563 0.1563 0.1563 0.1563 0.1562 0.1562 0.1562 0.1562 0.1562 0.1562 0.1562 0.1562 0.1562 0.1562 0.1562 0.1563 0.1563 
0.1525 0.1525 0.1525 0.1525 0.1525 0.1525 0.1525 0.1525 0.1524 0.1524 0.1524 0.1524 0.1524 0.1524 0.1524 0.1524 0.1524 0.1524 0.1524 0.1525 0.1525 
0.1432 0.1432 0.1432 0.1431 0.1431 0.1431 0.1431 0.1431 0.1431 0.1431 0.143 0.143 0.143 0.143 0.143 0.143 0.143 0.1431 0.1431 0.1431 0.1432 
0.1292 0.1292 0.1292 0.1292 0.1292 0.1292 0.1292 0.1292 0.1292 0.1292 0.1291 0.1291 0.1291 0.1291 0.1291 0.1291 0.1291 0.1292 0.1292 0.1292 0.1292 
0.1122 0.1122 0.1122 0.1122 0.1122 0.1121 0.1121 0.1121 0.1121 0.1121 0.1121 0.1121 0.1121 0.1121 0.1121 0.1121 0.1121 0.1121 0.1121 0.1121 0.1122 
0.09358 0.09357 0.09356 0.09356 0.09355 0.09354 0.09353 0.09352 0.09351 0.09351 0.0935 0.09349 0.09349 0.09348 0.09348 0.09349 0.09349 0.0935 0.09352 0.09354 0.09358 
0.07498 0.07497 0.07497 0.07496 0.07495 0.07495 0.07494 0.07493 0.07493 0.07492 0.07492 0.07491 0.07491 0.0749 0.0749 0.0749 0.07491 0.07492 0.07493 0.07495 0.07498 
0.05768 0.05767 0.05767 0.05766 0.05766 0.05766 0.05765 0.05765 0.05764 0.05764 0.05763 0.05763 0.05762 0.05762 0.05762 0.05762 0.05762 0.05763 0.05764 0.05765 0.05768 
0.04258 0.04257 0.04257 0.04257 0.04257 0.04256 0.04256 0.04256 0.04255 0.04255 0.04255 0.04254 0.04254 0.04253 0.04253 0.04253 0.04254 0.04254 0.04255 0.04256 0.04258 
0.03015 0.03015 0.03015 0.03014 0.03014 0.03014 0.03014 0.03013 0.03013 0.03012 0.03012 0.03012 0.03012 0.03011 0.03012 0.03011 0.03012 0.03012 0.03013 0.03013 0.03015 
0.02046 0.02046 0.02046 0.02045 0.02046 0.02045 0.02045 0.02045 0.02045 0.02044 0.02045 0.02044 0.02044 0.02044 0.02044 0.02044 0.02044 0.02044 0.02045 0.02045 0.02046 
0.0133 0.0133 0.0133 0.0133 0.0133 0.0133 0.0133 0.0133 0.0133 0.01329 0.01329 0.01329 0.01329 0.01329 0.01329 0.01329 0.01329 0.01329 0.01329 0.0133 0.0133 
0.008282 0.008281 0.008281 0.00828 0.00828 0.008279 0.008279 0.008278 0.008277 0.008276 0.008274 0.008273 0.008272 0.008271 0.008271 0.008271 0.008271 0.008272 0.008274 0.008277 0.008282 
0.004935 0.004933 0.004933 0.004932 0.004932 0.004931 0.00493 0.004929 0.004929 0.004928 0.004927 0.004927 0.004926 0.004926 0.004926 0.004926 0.004927 0.004928 0.004929 0.004931 0.004935 
0.00281 0.002809 0.002808 0.002808 0.002807 0.002807 0.002807 0.002807 0.002807 0.002806 0.002806 0.002806 0.002806 0.002806 0.002807 0.002807 0.002807 0.002808 0.002808 0.002809 0.00281 
</DataArray>
<DataArray Name="E" NumberOfComponents="1" format="ascii" type="Float64">
1.503 1.503 1.503 1.502 1.502 1.502 1.502 1.502 1.502 1.501 1.501 1.501 1.501 1.5 1.5 1.499 1.498 1.496 1.495 1.493 1.493 
1.503 1.503 1.503 1.502 1.502 1.502 1.502 1.502 1.502 1.501 1.501 1.501 1.501 1.5 1.5 1.499 1.498 1.496 1.495 1.493 1.493 
1.503 1.503 1.503 1.502 1.502 1.502 1.502 1.502 1.502 1.501 1.501 1.501 1.501 1.5 1.5 1.499 1.498 1.496 1.495 1.493 1.493 
1.503 1.503 1.503 1.502 1.502 1.502 1.502 1.502 1.502 1.501 1.501 1.501 1.501 1.5 1.5 1.499 1.498 1.496 1.495 1.493 1.493 
1.503 1.503 1.503 1.502 1.502 1.502 1.502 1.502 1.502 1.501 1.501 1.501 1.501 1.5 1.5 1.499 1.498 1.496 1.495 1.493 1.493 
1.503 1.503 1.503 1.502 1.502 1.502 1.502 1.502 1.502 1.501 1.501 1.501 1.501 1.5 1.5 1.499 1.498 1.496 1.495 1.493 1.493 
1.503 1.503 1.503 1.502 1.502 1.502 1.502 1.502 1.502 1.501 1.501 1.501 1.501 1.5 1.5 1.499 1.498 1.496 1.495 1.493 1.493 
1.503 1.503 1.503 1.502 1.502 1.502 1.502 1.502 1.502 1.501 1.501 1.501 1.501 1.5 1.5 1.499 1.498 1.496 1.495 1.493 1.493 
1.503 1.503 1.503 1.502 1.502 1.502 1.502 1.502 1.502 1.501 1.501 1.501 1.501 1.5 1.5 1.499 1.498 1.496 1.495 1.493 1.493 
1.503 1.503 1.503 1.502 1.502 1.502 1.502 1.502 1.502 1.501 1.501 1.501 1.501 1.5 1.5 1.499 1.498 1.496 1.495 1.493 1.493 
1.503 1.503 1.503 1.502 1.502 1.502 1.502 1.502 1.502 1.501 1.501 1.501 1.501 1.5 1.5 1.499 1.498 1.496 1.495 1.493 1.493 
1.503 1.503 1.503 1.502 1.502 1.502 1.502 1.502 1.502 1.501 1.501 1.501 1.501 1.5 1.5 1.499 1.498 1.496 1.495 1.493 1.493 
1.503 1.503 1.503 1.502 1.502 1.502 1.502 1.502 1.502 1.501 1.501 1.501 1.501 1.5 1.5 1.499 1.498 1.496 1.495 1.493 1.493 
1.503 1.503 1.503 1.502 1.502 1.502 1.502 1.502 1.502 1.501 1.501 1.501 1.501 1.5 1.5 1.499 1.498 1.496 1.495 1.493 1.493 
1.503 1.503 1.503 1.502 1.502 1.502 1.502 1.502 1.502 1.501 1.501 1.501 1.501 1.5 1.5 1.499 1.498 1.496 1.495 1.493 1.493 
1.503 1.503 1.503 1.502 1.502 1.502 1.502 1.502 1.502 1.501 1.501 1.501 1.501 1.5 1.5 1.499 1.498 1.496 1.495 1.493 1.493 
1.503 1.503 1.503 1.502 1.502 1.502 1.502 1.502 1.502 1.501 1.501 1.501 1.501 1.5 1.5 1.499 1.498 1.496 1.495 1.493 1.493 
1.503 1.503 1.503 1.502 1.502 1.502 1.502 1.502 1.502 1.501 1.501 1.501 1.501 1.5 1.5 1.499 1.498 1.496 1.495 1.493 1.493 
1.503 1.503 1.503 1.502 1.502 1.502 1.502 1.502 1.502 1.501 1.501 1.501 1.501 1.5 1.5 1.499 1.498 1.496 1.495 1.493 1.493 
1.503 1.503 1.503 1.502 1.502 1.502 1.502 1.502 1.502 1.501 1.501 1.501 1.501 1.5 1.5 1.499 1.498 1.496 1.495 1.493 1.493 
1.503 1.503 1.503 1.502 1.502 1.502 1.502 1.502 1.502 1.501 1.501 1.501 1.501 1.5 1.5 1.499 1.498 1.496 1.495 1.493 1.493 
1.503 1.503 1.503 1.502 1.502 1.502 1.502 1.502 1.502 1.501 1.501 1.501 1.501 1.5 1.5 1.499 1.498 1.496 1.495 1.493 1.493 
1.503 1.503 1.503 1.502 1.502 1.502 1.502 1.502 1.502 1.501 1.501 1.501 1.501 1.5 1.5 1.499 1.498 1.496 1.495 1.493 1.493 
1.503 1.503 1.503 1.502 1.502 1.502 1.502 1.502 1.502 1.501 1.501 1.501 1.501 1.5 1.5 1.499 1.498 1.496 1.495 1.493 1.493 
1.503 1.503 1.503 1.502 1.502 1.502 1.502 1.502 1.502 1.501 1.501 1.501 1.501 1.5 1.5 1.499 1.498 1.496 1.495 1.493 1.493 
1.503 1.503 1.503 1.502 1.502 1.502 1.502 1.502 1.502 1.501 1.501 1.501 1.501 1.5 1.5 1.499 1.498 1.496 1.495 1.493 1.493 
1.503 1.503 1.503 1.502 1.502 1.502 1.502 1.502 1.502 1.501 1.501 1.501 1.501 1.5 1.5 1.499 1.498 1.496 1.495 1.493 1.493 
1.503 1.503 1.503 1.502 1.502 1.502 1.502 1.502 1.502 1.501 1.501 1.501 1.501 1.5 1.5 1.499 1.498 1.496 1.495 1.493 1.493 
1.503 1.503 1.503 1.502 1.502 1.502 1.502 1.502 1.502 1.501 1.501 1.501 1.501 1.5 1.5 1.499 1.498 1.496 1.495 1.493 1.493 
1.503 1.503 1.503 1.502 1.502 1.502 1.502 1.502 1.502 1.501 1.501 1.501 1.501 1.5 1.5 1.499 1.498 1.496 1.495 1.493 1.493 
1.503 1.503 1.503 1.502 1.502 1.502 1.502 1.502 1.502 1.501 1.501 1.501 1.501 1.5 1.5 1.499 1.498 1.496 1.495 1.493 1.493 
1.503 1.503 1.503 1.502 1.502 1.502 1.502 1.502 1.502 1.501 1.501 1.501 1.501 1.5 1.5 1.499 1.498 1.496 1.495 1.493 1.493 
1.503 1.503 1.503 1.502 1.502 1.502 1.502 1.502 1.502 1.501 1.501 1.501 1.501 1.5 1.5 1.499 1.498 1.496 1.495 1.493 1.493 
1.503 1.503 1.503 1.502 1.502 1.502 1.502 1.502 1.502 1.501 1.501 1.501 1.501 1.5 1.5 1.499 1.498 1.496 1.495 1.493 1.493 
1.503 1.503 1.503 1.502 1.502 1.502 1.502 1.502 1.502 1.501 1.501 1.501 1.501 1.5 1.5 1.499 1.498 1.496 1.495 1.493 1.493 
1.503 1.503 1.503 1.502 1.502 1.502 1.502 1.502 1.502 1.501 1.501 1.501 1.501 1.5 1.5 1.499 1.498 1.496 1.495 1.493 1.493 
1.503 1.503 1.503 1.502 1.502 1.502 1.502 1.502 1.502 1.501 1.501 1.501 1.501 1.5 1.5 1.499 1.498 1.496 1.495 1.493 1.493 
1.503 1.503 1.503 1.502 1.502 1.502 1.502 1.502 1.502 1.501 1.501 1.501 1.501 1.5 1.5 1.499 1.498 1.496 1.495 1.493 1.493 
1.503 1.503 1.503 1.502 1.502 1.502 1.502 1.502 1.502 1.501 1.501 1.501 1.501 1.5 1.5 1.499 1.498 1.496 1.495 1.493 1.493 
1.503 1.503 1.503 1.502 1.502 1.502 1.502 1.502 1.502 1.501 1.501 1.501 1.501 1.5 1.5 1.499 1.498 1.496 1.495 1.493 1.493 
1.503 1.503 1.503 1.502 1.502 1.502 1.502 1.502 1.502 1.501 1.501 1.501 1.501 1.5 1.5 1.499 1.498 1.496 1.495 1.493 1.493 
</DataArray>
<DataArray Name="ne" NumberOfComponents="1" format="ascii" type="Float64">
0.9973 0.9987 0.9991 0.9994 0.9996 0.9998 0.9999 0.9999 0.9999 0.9998 0.9996 0.9994 0.9991 0.9988 0.9985 0.9981 0.9977 0.9973 0.9969 0.9968 0.997 
0.9973 0.9987 0.9991 0.9994 0.9996 0.9998 0.9999 0.9999 0.9999 0.9998 0.9996 0.9994 0.9991 0.9988 0.9985 0.9981 0.9977 0.9973 0.9969 0.9968 0.997 
0.9973 0.9987 0.9991 0.9994 0.9996 0.9998 0.9999 0.9999 0.9999 0.9998 0.9996 0.9994 0.9991 0.9988 0.9985 0.9981 0.9977 0.9973 0.9969 0.9968 0.997 
0.9973 0.9987 0.9991 0.9994 0.9996 0.9998 0.9999 0.9999 0.9999 0.9998 0.9996 0.9994 0.9991 0.9988 0.9985 0.9981 0.9977 0.9973 0.9969 0.9968 0.997 
0.9973 0.9987 0.9991 0.9994 0.9996 0.9998 0.9999 0.9999 0.9999 0.9998 0.9996 0.9994 0.9991 0.9988 0.9985 0.9981 0.9977 0.9973 0.9969 0.9968 0.997 
0.9973 0.9987 0.9991 0.9994 0.9996 0.9998 0.9999 0.9999 0.9999 0.9998 0.9996 0.9994 0.9991 0.9988 0.9985 0.9981 0.9977 0.9973 0.9969 0.9968 0.997 
0.9973 0.9987 0.9991 0.9994 0.9996 0.9998 0.9999 0.9999 0.9999 0.9998 0.9996 0.9994 0.9991 0.9988 0.9985 0.9981 0.9977 0.9973 0.9969 0.9968 0.997 
0.9973 0.9987 0.9991 0.9994 0.9996 0.9998 0.9999 0.9999 0.9999 0.9998 0.9996 0.9994 0.9991 0.9988 0.9985 0.9981 0.9977 0.9973 0.9969 0.9968 0.997 
0.9973 0.9987 0.9991 0.9994 0.9996 0.9998 0.9999 0.9999 0.9999 0.9998 0.9996 0.9994 0.9991 0.9988 0.9985 0.9981 0.9977 0.9973 0.9969 0.9968 0.997 
0.9973 0.9987 0.9991 0.9994 0.9996 0.9998 0.9999 0.9999 0.9999 0.9998 0.9996 0.9994 0.9991 0.9988 0.9985 0.9981 0.9977 0.9973 0.9969 0.9968 0.997 
0.9973 0.9987 0.9991 0.9994 0.9996 0.9998 0.9999 0.9999 0.9999 0.9998 0.9996 0.9994 0.9991 0.9988 0.9985 0.9981 0.9977 0.9973 0.9969 0.9968 0.997 
0.9973 0.9987 0.9991 0.9994 0.9996 0.9998 0.9999 0.9999 0.9999 0.9998 0.9996 0.9994 0.9991 0.9988 0.9985 0.9981 0.9977 0.9973 0.9969 0.9968 0.997 
0.9973 0.9987 0.9991 0.9994 0.9996 0.9998 0.9999 0.9999 0.9999 0.9998 0.9996 0.9994 0.9991 0.9988 0.9985 0.9981 0.9977 0.9973 0.9969 0.9968 0.997 
0.9973 0.9987 0.9991 0.9994 0.9996 0.9998 0.9999 0.9999 0.9999 0.9998 0.9996 0.9994 0.9991 0.9988 0.9985 0.9981 0.9977 0.9973 0.9969 0.9968 0.997 
0.9973 0.9987 0.9991 0.9994 0.9996 0.9998 0.9999 0.9999 0.9999 0.9998 0.9996 0.9994 0.9991 0.9988 0.9985 0.9981 0.9977 0.9973 0.9969 0.9968 0.997 
0.9973 0.9987 0.9991 0.9994 0.9996 0.9998 0.9999 0.9999 0.9999 0.9998 0.9996 0.9994 0.9991 0.9988 0.9985 0.9981 0.9977 0.9973 0.9969 0.9968 0.997 
0.9973 0.9987 0.9991 0.9994 0.9996 0.9998 0.9999 0.9999 0.9999 0.9998 0.9996 0.9994 0.9991 0.9988 0.9985 0.9981 0.9977 0.9973 0.9969 0.9968 0.997 
0.9973 0.9987 0.9991 0.9994 0.9996 0.9998 0.9999 0.9999 0.9999 0.9998 0.9996 0.9994 0.9991 0.9988 0.9985 0.9981 0.9977 0.9973 0.9969 0.9968 0.997 
0.9973 0.9987 0.9991 0.9994 0.9996 0.9998 0.9999 0.9999 0.9999 0.9998 0.9996 0.9994 0.9991 0.9988 0.9985 0.9981 0.9977 0.9973 0.9969 0.9968 0.997 
0.9973 0.9987 0.9991 0.9994 0.9996 0.9998 0.9999 0.9999 0.9999 0.9998 0.9996 0.9994 0.9991 0.9988 0.9985 0.9981 0.9977 0.9973 0.9969 0.9968 0.997 
0.9973 0.9987 0.9991 0.9994 0.9996 0.9998 0.9999 0.9999 0.9999 0.9998 0.9996 0.9994 0.9991 0.9988 0.9985 0.9981 0.9977 0.9973 0.9969 0.9968 0.997 
0.9973 0.9987 0.9991 0.9994 0.9996 0.9998 0.9999 0.9999 0.9999 0.9998 0.9996 0.9994 0.9991 0.9988 0.9985 0.9981 0.9977 0.9973 0.9969 0.9968 0.997 
0.9973 0.9987 0.9991 0.9994 0.9996 0.9998 0.9999 0.9999 0.9999 0.9998 0.9996 0.9994 0.9991 0.9988 0.9985 0.9981 0.9977 0.9973 0.9969 0.9968 0.997 
0.9973 0.9987 0.9991 0.9994 0.9996 0.9998 0.9999 0.9999 0.9999 0.9998 0.9996 0.9994 0.9991 0.9988 0.9985 0.9981 0.9977 0.9973 0.9969 0.9968 0.997 
0.9973 0.9987 0.9991 0.9994 0.9996 0.9998 0.9999 0.9999 0.9999 0.9998 0.9996 0.9994 0.9991 0.9988 0.9985 0.9981 0.9977 0.9973 0.9969 0.9968 0.997 
0.9973 0.9987 0.9991 0.9994 0.9996 0.9998 0.9999 0.9999 0.9999 0.9998 0.9996 0.9994 0.9991 0.9988 0.9985 0.9981 0.9977 0.9973 0.9969 0.9968 0.997 
0.9973 0.9987 0.9991 0.9994 0.9996 0.9998 0.9999 0.9999 0.9999 0.9998 0.9996 0.9994 0.9991 0.9988 0.9985 0.9981 0.9977 0.9973 0.9969 0.9968 0.997 
0.9973 0.9987 0.9991 0.9994 0.9996 0.9998 0.9999 0.9999 0.9999 0.9998 0.9996 0.9994 0.9991 0.9988 0.9985 0.9981 0.9977 0.9973 0.9969 0.9968 0.997 
0.9973 0.9987 0.9991 0.9994 0.9996 0.9998 0.9999 0.9999 0.9999 0.9998 0.9996 0.9994 0.9991 0.9988 0.9985 0.9981 0.9977 0.9973 0.9969 0.9968 0.997 
0.9973 0.9987 0.9991 0.9994 0.9996 0.9998 0.9999 0.9999 0.9999 0.9998 0.9996 0.9994 0.9991 0.9988 0.9985 0.9981 0.9977 0.9973 0.9969 0.9968 0.997 
0.9973 0.9987 0.9991 0.9994 0.9996 0.9998 0.9999 0.9999 0.9999 0.9998 0.9996 0.9994 0.9991 0.9988 0.9985 0.9981 0.9977 0.9973 0.9969 0.9968 0.997 
0.9973 0.9987 0.9991 0.9994 0.9996 0.9998 0.9999 0.9999 0.9999 0.9998 0.9996 0.9994 0.9991 0.9988 0.9985 0.9981 0.9977 0.9973 0.9969 0.9968 0.997 
0.9973 0.9987 0.9991 0.9994 0.9996 0.9998 0.9999 0.9999 0.9999 0.9998 0.9996 0.9994 0.9991 0.9988 0.9985 0.9981 0.9977 0.9973 0.9969 0.9968 0.997 
0.9973 0.9987 0.9991 0.9994 0.9996 0.9998 0.9999 0.9999 0.9999 0.9998 0.9996 0.9994 0.9991 0.9988 0.9985 0.9981 0.9977 0.9973 0.9969 0.9968 0.997 
0.9973 0.9987 0.9991 0.9994 0.9996 0.9998 0.9999 0.9999 0.9999 0.9998 0.9996 0.9994 0.9991 0.9988 0.9985 0.9981 0.9977 0.9973 0.9969 0.9968 0.997 
0.9973 0.9987 0.9991 0.9994 0.9996 0.9998 0.9999 0.9999 0.9999 0.9998 0.9996 0.9994 0.9991 0.9988 0.9985 0.9981 0.9977 0.9973 0.9969 0.9968 0.997 
0.9973 0.9987 0.9991 0.9994 0.9996 0.9998 0.9999 0.9999 0.9999 0.9998 0.9996 0.9994 0.9991 0.9988 0.9985 0.9981 0.9977 0.9973 0.9969 0.9968 0.997 
0.9973 0.9987 0.9991 0.9994 0.9996 0.9998 0.9999 0.9999 0.9999 0.9998 0.9996 0.9994 0.9991 0.9988 0.9985 0.9981 0.9977 0.9973 0.9969 0.9968 0.997 
0.9973 0.9987 0.9991 0.9994 0.9996 0.9998 0.9999 0.9999 0.9999 0.9998 0.9996 0.9994 0.9991 0.9988 0.9985 0.9981 0.9977 0.9973 0.9969 0.9968 0.997 
0.9973 0.9987 0.9991 0.9994 0.9996 0.9998 0.9999 0.9999 0.9999 0.9998 0.9996 0.9994 0.9991 0.9988 0.9985 0.9981 0.9977 0.9973 0.9969 0.9968 0.997 
0.9973 0.9987 0.9991 0.9994 0.9996 0.9998 0.9999 0.9999 0.9999 0.9998 0.9996 0.9994 0.9991 0.9988 0.9985 0.9981 0.9977 0.9973 0.9969 0.9968 0.997 
</DataArray>
</PointData>
</Piece>
</ImageData>
</VTKFile>
