<VTKFile type="ImageData">
<ImageData Origin="0 -10 0" Spacing="0.5 0.5 1" WholeExtent="0 20 0 40 0 0">
<Piece Extent="0 20 0 40 0 0">
<PointData>
<DataArray Name="f" NumberOfComponents="1" format="ascii" type="Float64">
0.00157 0.00157 0.00157 0.001569 0.001569 0.001569 0.001569 0.001569 0.001569 0.001569 0.001568 0.001568 0.001568 0.001568 0.001568 0.001568 0.001568 0.001569 0.001569 0.001569 0.00157 
0.00399 0.00399 0.00399 0.003989 0.003989 0.003989 0.003988 0.003988 0.003988 0.003987 0.003987 0.003987 0.003987 0.003987 0.003987 0.003987 0.003987 0.003987 0.003988 0.003989 0.00399 
0.009215 0.009214 0.009214 0.009213 0.009212 0.009212 0.009211 0.00921 0.00921 0.009209 0.009209 0.009208 0.009208 0.009208 0.009208 0.009208 0.009208 0.009209 0.009211 0.009211 0.009215 
0.01935 0.01935 0.01935 0.01935 0.01935 0.01935 0.01934 0.01934 0.01934 0.01934 0.01934 0.01934 0.01934 0.01934 0.01934 0.01934 0.01934 0.01934 0.01934 0.01934 0.01935 
0.03698 0.03698 0.03698 0.03697 0.03697 0.03697 0.03697 0.03697 0.03696 0.03696 0.03696 0.03696 0.03696 0.03696 0.03696 0.03696 0.03696 0.03696 0.03697 0.03697 0.03698 
0.06433 0.06433 0.06432 0.06432 0.06432 0.06431 0.06431 0.06431 0.06431 0.0643 0.0643 0.0643 0.0643 0.06429 0.06429 0.06429 0.0643 0.0643 0.06431 0.06431 0.06433 
0.1019 0.1019 0.1019 0.1019 0.1019 0.1019 0.1019 0.1019 0.1019 0.1018 0.1018 0.1018 0.1018 0.1018 0.1018 0.1018 0.1018 0.1018 0.1018 0.1019 0.1019 
0.1469 0.1469 0.1469 0.1469 0.1469 0.1469 0.1469 0.1468 0.1468 0.1468 0.1468 0.1468 0.1468 0.1468 0.1468 0.1468 0.1468 0.1468 0.1468 0.1468 0.1469 
0.1927 0.1927 0.1927 0.1927 0.1927 0.1927 0.1926 0.1926 0.1926 0.1926 0.1926 0.1926 0.1926 0.1926 0.1926 0.1926 0.1926 0.1926 0.1926 0.1926 0.1927 
0.2298 0.2298 0.2298 0.2298 0.2298 0.2298 0.2298 0.2298 0.2298 0.2298 0.2298 0.2298 0.2298 0.2298 0.2298 0.2298 0.2298 0.2298 0.2298 0.2298 0.2298 
0.249 0.249 0.249 0.249 0.249 0.249 0.249 0.249 0.249 0.249 0.249 0.249 0.249 0.249 0.249 0.249 0.249 0.249 0.249 0.249 0.249 
0.2448 0.2448 0.2448 0.2448 0.2448 0.2448 0.2448 0.2448 0.2448 0.2448 0.2448 0.2448 0.2448 0.2448 0.2448 0.2448 0.2448 0.2448 0.2448 0.2448 0.2448 
0.218 0.218 0.218 0.218 0.218 0.218 0.218 0.218 0.218 0.2181 0.2181 0.2181 0.2181 0.2181 0.2181 0.2181 0.2181 0.2181 0.2181 0.2181 0.218 
0.1756 0.1756 0.1756 0.1756 0.1756 0.1756 0.1756 0.1756 0.1756 0.1756 0.1756 0.1756 0.1756 0.1756 0.1756 0.1756 0.1756 0.1756 0.1756 0.1756 0.1756 
0.1276 0.1275 0.1276 0.1276 0.1276 0.1276 0.1276 0.1276 0.1276 0.1276 0.1276 0.1276 0.1276 0.1276 0.1276 0.1276 0.1276 0.1276 0.1276 0.1276 0.1276 
0.0834 0.08338 0.08339 0.08339 0.0834 0.0834 0.0834 0.08341 0.08341 0.08341 0.08342 0.08342 0.08342 0.08343 0.08343 0.08343 0.08344 0.08344 0.08344 0.08343 0.0834 
0.04892 0.04891 0.04891 0.04892 0.04892 0.04892 0.04892 0.04893 0.04893 0.04893 0.04893 0.04894 0.04894 0.04894 0.04894 0.04895 0.04895 0.04895 0.04895 0.04894 0.04892 
0.02566 0.02565 0.02566 0.02566 0.02566 0.02566 0.02566 0.02566 0.02567 0.02567 0.02567 0.02567 0.02567 0.02567 0.02567 0.02568 0.02568 0.02568 0.02568 0.02568 0.02566 
0.01199 0.01199 0.01199 0.01199 0.01199 0.01199 0.01199 0.01199 0.01199 0.01199 0.01199 0.012 0.012 0.012 0.012 0.012 0.012 0.012 0.012 0.012 0.01199 
0.004971 0.004968 0.004969 0.004969 0.004969 0.00497 0.00497 0.00497 0.004971 0.004971 0.004972 0.004972 0.004972 0.004973 0.004973 0.004973 0.004974 0.004974 0.004974 0.004974 0.004971 
0.001819 0.001818 0.001818 0.001818 0.001818 0.001818 0.001818 0.001819 0.001819 0.001819 0.001819 0.001819 0.001819 0.001819 0.00182 0.00182 0.00182 0.00182 0.00182 0.00182 0.001819 
0.0005845 0.0005841 0.000584 0.0005841 0.0005841 0.0005842 0.0005842 0.0005843 0.0005843 0.0005844 0.0005844 0.0005845 0.0005845 0.0005846 0.0005846 0.0005847 0.0005847 0.0005848 0.0005848 0.0005849 0.0005845 
0.000164 0.0001638 0.0001638 0.0001638 0.0001638 0.0001638 0.0001639 0.0001639 0.0001639 0.0001639 0.0001639 0.0001639 0.000164 0.000164 0.000164 0.000164 0.000164 0.000164 0.000164 0.0001641 0.000164 
3.989e-05 3.986e-05 3.985e-05 3.985e-05 3.986e-05 3.986e-05 3.986e-05 3.987e-05 3.987e-05 3.988e-05 3.988e-05 3.988e-05 3.989e-05 3.989e-05 3.99e-05 3.99e-05 3.99e-05 3.991e-05 3.991e-05 3.991e-05 3.989e-05 
8.361e-06 8.354e-06 8.352e-06 8.352e-06 8.352e-06 8.353e-06 8.354e-06 8.355e-06 8.356e-06 8.357e-06 8.357e-06 8.358e-06 8.359e-06 8.36e-06 8.361e-06 8.362e-06 8.363e-06 8.364e-06 8.364e-06 8.365e-06 8.361e-06 
1.498e-06 1.497e-06 1.497e-06 1.497e-06 1.497e-06 1.497e-06 1.497e-06 1.497e-06 1.497e-06 1.497e-06 1.498e-06 1.498e-06 1.498e-06 1.498e-06 1.498e-06 1.498e-06 1.499e-06 1.499e-06 1.499e-06 1.499e-06 1.498e-06 
2.278e-07 2.276e-07 2.275e-07 2.275e-07 2.275e-07 2.275e-07 2.276e-07 2.276e-07 2.276e-07 2.276e-07 2.277e-07 2.277e-07 2.277e-07 2.277e-07 2.278e-07 2.278e-07 2.278e-07 2.278e-07 2.279e-07 2.279e-07 2.278e-07 
2.915e-08 2.912e-08 2.911e-08 2.911e-08 2.911e-08 2.911e-08 2.911e-08 2.911e-08 2.912e-08 2.912e-08 2.913e-08 2.913e-08 2.913e-08 2.914e-08 2.914e-08 2.914e-08 2.915e-08 2.915e-08 2.915e-08 2.916e-08 2.915e-08 
3.113e-09 3.11e-09 3.109e-09 3.109e-09 3.108e-09 3.109e-09 3.109e-09 3.109e-09 3.109e-09 3.11e-09 3.11e-09 3.111e-09 3.111e-09 3.111e-09 3.112e-09 3.112e-09 3.113e-09 3.113e-09 3.113e-09 3.114e-09 3.113e-09 
2.806e-10 2.803e-10 2.803e-10 2.802e-10 2.802e-10 2.802e-10 2.802e-10 2.803e-10 2.803e-10 2.803e-10 2.804e-10 2.804e-10 2.804e-10 2.805e-10 2.805e-10 2.805e-10 2.806e-10 2.806e-10 2.806e-10 2.807e-10 2.806e-10 
7.383e-11 7.389e-11 7.39e-11 7.391e-11 7.391e-11 7.392e-11 7.391e-11 7.391e-11 7.39e-11 7.39e-11 7.389e-11 7.389e-11 7.388e-11 7.387e-11 7.386e-11 7.386e-11 7.385e-11 7.384e-11 7.384e-11 7.383e-11 7.383e-11 
4.616e-10 4.622e-10 4.623e-10 4.625e-10 4.625e-10 4.625e-10 4.625e-10 4.624e-10 4.624e-10 4.623e-10 4.623e-10 4.622e-10 4.621e-10 4.62e-10 4.619e-10 4.619e-10 4.618e-10 4.617e-10 4.616e-10 4.616e-10 4.616e-10 
3.457e-09 3.461e-09 3.462e-09 3.463e-09 3.464e-09 3.464e-09 3.464e-09 3.463e-09 3.463e-09 3.463e-09 3.462e-09 3.462e-09 3.461e-09 3.46e-09 3.46e-09 3.459e-09 3.459e-09 3.458e-09 3.458e-09 3.457e-09 3.457e-09 
2.292e-08 2.295e-08 2.295e-08 2.296e-08 2.297e-08 2.297e-08 2.297e-08 2.297e-08 2.296e-08 2.296e-08 2.296e-08 2.295e-08 2.295e-08 2.295e-08 2.294e-08 2.294e-08 2.294e-08 2.293e-08 2.293e-08 2.293e-08 2.292e-08 
1.349e-07 1.35e-07 1.351e-07 1.351e-07 1.351e-07 1.351e-07 1.351e-07 1.351e-07 1.351e-07 1.351e-07 1.351e-07 1.351e-07 1.351e-07 1.35e-07 1.35e-07 1.35e-07 1.35e-07 1.35e-07 1.349e-07 1.349e-07 1.349e-07 
7.074e-07 7.081e-07 7.081e-07 7.085e-07 7.085e-07 7.086e-07 7.085e-07 7.086e-07 7.085e-07 7.084e-07 7.084e-07 7.083e-07 7.082e-07 7.081e-07 7.08e-07 7.079e-07 7.078e-07 7.077e-07 7.076e-07 7.075e-07 7.074e-07 
3.318e-06 3.321e-06 3.321e-06 3.323e-06 3.323e-06 3.323e-06 3.323e-06 3.323e-06 3.323e-06 3.323e-06 3.322e-06 3.322e-06 3.322e-06 3.321e-06 3.321e-06 3.32e-06 3.32e-06 3.32e-06 3.319e-06 3.319e-06 3.318e-06 
1.397e-05 1.398e-05 1.398e-05 1.399e-05 1.399e-05 1.399e-05 1.399e-05 1.399e-05 1.399e-05 1.399e-05 1.399e-05 1.398e-05 1.398e-05 1.398e-05 1.398e-05 1.398e-05 1.398e-05 1.397e-05 1.397e-05 1.397e-05 1.397e-05 
5.293e-05 5.297e-05 5.298e-05 5.299e-05 5.3e-05 5.3e-05 5.3e-05 5.3e-05 5.3e-05 5.3e-05 5.299e-05 5.298e-05 5.298e-05 5.297e-05 5.297e-05 5.296e-05 5.295e-05 5.295e-05 5.294e-05 5.294e-05 5.293e-05 
0.000181 0.0001811 0.0001812 0.0001812 0.0001812 0.0001812 0.0001812 0.0001812 0.0001812 0.0001812 0.0001812 0.0001811 0.0001811 0.0001811 0.0001811 0.0001811 0.000181 0.000181 0.000181 0.000181 0.000181 
0.0005599 0.0005602 0.0005603 0.0005603 0.0005603 0.0005603 0.0005602 0.0005602 0.0005601 0.0005601 0.00056 0.00056 0.0005599 0.0005599 0.0005599 0.0005598 0.0005598 0.0005598 0.0005598 0.0005598 0.0005599 
</DataArray>
<DataArray Name="E" NumberOfComponents="1" format="ascii" type="Float64">
1.502 1.501 1.501 1.501 1.501 1.501 1.501 1.5 1.5 1.5 1.5 1.5 1.5 1.499 1.499 1.499 1.499 1.499 1.499 1.499 1.499 
1.502 1.501 1.501 1.501 1.501 1.501 1.501 1.5 1.5 1.5 1.5 1.5 1.5 1.499 1.499 1.499 1.499 1.499 1.499 1.499 1.499 
1.502 1.501 1.501 1.501 1.501 1.501 1.501 1.5 1.5 1.5 1.5 1.5 1.5 1.499 1.499 1.499 1.499 1.499 1.499 1.499 1.499 
1.502 1.501 1.501 1.501 1.501 1.501 1.501 1.5 1.5 1.5 1.5 1.5 1.5 1.499 1.499 1.499 1.499 1.499 1.499 1.499 1.499 
1.502 1.501 1.501 1.501 1.501 1.501 1.501 1.5 1.5 1.5 1.5 1.5 1.5 1.499 1.499 1.499 1.499 1.499 1.499 1.499 1.499 
1.502 1.501 1.501 1.501 1.501 1.501 1.501 1.5 1.5 1.5 1.5 1.5 1.5 1.499 1.499 1.499 1.499 1.499 1.499 1.499 1.499 
1.502 1.501 1.501 1.501 1.501 1.501 1.501 1.5 1.5 1.5 1.5 1.5 1.5 1.499 1.499 1.499 1.499 1.499 1.499 1.499 1.499 
1.502 1.501 1.501 1.501 1.501 1.501 1.501 1.5 1.5 1.5 1.5 1.5 1.5 1.499 1.499 1.499 1.499 1.499 1.499 1.499 1.499 
1.502 1.501 1.501 1.501 1.501 1.501 1.501 1.5 1.5 1.5 1.5 1.5 1.5 1.499 1.499 1.499 1.499 1.499 1.499 1.499 1.499 
1.502 1.501 1.501 1.501 1.501 1.501 1.501 1.5 1.5 1.5 1.5 1.5 1.5 1.499 1.499 1.499 1.499 1.499 1.499 1.499 1.499 
1.502 1.501 1.501 1.501 1.501 1.501 1.501 1.5 1.5 1.5 1.5 1.5 1.5 1.499 1.499 1.499 1.499 1.499 1.499 1.499 1.499 
1.502 1.501 1.501 1.501 1.501 1.501 1.501 1.5 1.5 1.5 1.5 1.5 1.5 1.499 1.499 1.499 1.499 1.499 1.499 1.499 1.499 
1.502 1.501 1.501 1.501 1.501 1.501 1.501 1.5 1.5 1.5 1.5 1.5 1.5 1.499 1.499 1.499 1.499 1.499 1.499 1.499 1.499 
1.502 1.501 1.501 1.501 1.501 1.501 1.501 1.5 1.5 1.5 1.5 1.5 1.5 1.499 1.499 1.499 1.499 1.499 1.499 1.499 1.499 
1.502 1.501 1.501 1.501 1.501 1.501 1.501 1.5 1.5 1.5 1.5 1.5 1.5 1.499 1.499 1.499 1.499 1.499 1.499 1.499 1.499 
1.502 1.501 1.501 1.501 1.501 1.501 1.501 1.5 1.5 1.5 1.5 1.5 1.5 1.499 1.499 1.499 1.499 1.499 1.499 1.499 1.499 
1.502 1.501 1.501 1.501 1.501 1.501 1.501 1.5 1.5 1.5 1.5 1.5 1.5 1.499 1.499 1.499 1.499 1.499 1.499 1.499 1.499 
1.502 1.501 1.501 1.501 1.501 1.501 1.501 1.5 1.5 1.5 1.5 1.5 1.5 1.499 1.499 1.499 1.499 1.499 1.499 1.499 1.499 
1.502 1.501 1.501 1.501 1.501 1.501 1.501 1.5 1.5 1.5 1.5 1.5 1.5 1.499 1.499 1.499 1.499 1.499 1.499 1.499 1.499 
1.502 1.501 1.501 1.501 1.501 1.501 1.501 1.5 1.5 1.5 1.5 1.5 1.5 1.499 1.499 1.499 1.499 1.499 1.499 1.499 1.499 
1.502 1.501 1.501 1.501 1.501 1.501 1.501 1.5 1.5 1.5 1.5 1.5 1.5 1.499 1.499 1.499 1.499 1.499 1.499 1.499 1.499 
1.502 1.501 1.501 1.501 1.501 1.501 1.501 1.5 1.5 1.5 1.5 1.5 1.5 1.499 1.499 1.499 1.499 1.499 1.499 1.499 1.499 
1.502 1.501 1.501 1.501 1.501 1.501 1.501 1.5 1.5 1.5 1.5 1.5 1.5 1.499 1.499 1.499 1.499 1.499 1.499 1.499 1.499 
1.502 1.501 1.501 1.501 1.501 1.501 1.501 1.5 1.5 1.5 1.5 1.5 1.5 1.499 1.499 1.499 1.499 1.499 1.499 1.499 1.499 
1.502 1.501 1.501 1.501 1.501 1.501 1.501 1.5 1.5 1.5 1.5 1.5 1.5 1.499 1.499 1.499 1.499 1.499 1.499 1.499 1.499 
1.502 1.501 1.501 1.501 1.501 1.501 1.501 1.5 1.5 1.5 1.5 1.5 1.5 1.499 1.499 1.499 1.499 1.499 1.499 1.499 1.499 
1.502 1.501 1.501 1.501 1.501 1.501 1.501 1.5 1.5 1.5 1.5 1.5 1.5 1.499 1.499 1.499 1.499 1.499 1.499 1.499 1.499 
1.502 1.501 1.501 1.501 1.501 1.501 1.501 1.5 1.5 1.5 1.5 1.5 1.5 1.499 1.499 1.499 1.499 1.499 1.499 1.499 1.499 
1.502 1.501 1.501 1.501 1.501 1.501 1.501 1.5 1.5 1.5 1.5 1.5 1.5 1.499 1.499 1.499 1.499 1.499 1.499 1.499 1.499 
1.502 1.501 1.501 1.501 1.501 1.501 1.501 1.5 1.5 1.5 1.5 1.5 1.5 1.499 1.499 1.499 1.499 1.499 1.499 1.499 1.499 
1.502 1.501 1.501 1.501 1.501 1.501 1.501 1.5 1.5 1.5 1.5 1.5 1.5 1.499 1.499 1.499 1.499 1.499 1.499 1.499 1.499 
1.502 1.501 1.501 1.501 1.501 1.501 1.501 1.5 1.5 1.5 1.5 1.5 1.5 1.499 1.499 1.499 1.499 1.499 1.499 1.499 1.499 
1.502 1.501 1.501 1.501 1.501 1.501 1.501 1.5 1.5 1.5 1.5 1.5 1.5 1.499 1.499 1.499 1.499 1.499 1.499 1.499 1.499 
1.502 1.501 1.501 1.501 1.501 1.501 1.501 1.5 1.5 1.5 1.5 1.5 1.5 1.499 1.499 1.499 1.499 1.499 1.499 1.499 1.499 
1.502 1.501 1.501 1.501 1.501 1.501 1.501 1.5 1.5 1.5 1.5 1.5 1.5 1.499 1.499 1.499 1.499 1.499 1.499 1.499 1.499 
1.502 1.501 1.501 1.501 1.501 1.501 1.501 1.5 1.5 1.5 1.5 1.5 1.5 1.499 1.499 1.499 1.499 1.499 1.499 1.499 1.499 
1.502 1.501 1.501 1.501 1.501 1.501 1.501 1.5 1.5 1.5 1.5 1.5 1.5 1.499 1.499 1.499 1.499 1.499 1.499 1.499 1.499 
1.502 1.501 1.501 1.501 1.501 1.501 1.501 1.5 1.5 1.5 1.5 1.5 1.5 1.499 1.499 1.499 1.499 1.499 1.499 1.499 1.499 
1.502 1.501 1.501 1.501 1.501 1.501 1.501 1.5 1.5 1.5 1.5 1.5 1.5 1.499 1.499 1.499 1.499 1.499 1.499 1.499 1.499 
1.502 1.501 1.501 1.501 1.501 1.501 1.501 1.5 1.5 1.5 1.5 1.5 1.5 1.499 1.499 1.499 1.499 1.499 1.499 1.499 1.499 
1.502 1.501 1.501 1.501 1.501 1.501 1.501 1.5 1.5 1.5 1.5 1.5 1.5 1.499 1.499 1.499 1.499 1.499 1.499 1.499 1.499 
</DataArray>
<DataArray Name="ne" NumberOfComponents="1" format="ascii" type="Float64">
0.9997 0.9997 0.9997 0.9997 0.9997 0.9997 0.9997 0.9997 0.9997 0.9997 0.9997 0.9997 0.9997 0.9997 0.9997 0.9997 0.9997 0.9997 0.9997 0.9997 0.9997 
0.9997 0.9997 0.9997 0.9997 0.9997 0.9997 0.9997 0.9997 0.9997 0.9997 0.9997 0.9997 0.9997 0.9997 0.9997 0.9997 0.9997 0.9997 0.9997 0.9997 0.9997 
0.9997 0.9997 0.9997 0.9997 0.9997 0.9997 0.9997 0.9997 0.9997 0.9997 0.9997 0.9997 0.9997 0.9997 0.9997 0.9997 0.9997 0.9997 0.9997 0.9997 0.9997 
0.9997 0.9997 0.9997 0.9997 0.9997 0.9997 0.9997 0.9997 0.9997 0.9997 0.9997 0.9997 0.9997 0.9997 0.9997 0.9997 0.9997 0.9997 0.9997 0.9997 0.9997 
0.9997 0.9997 0.9997 0.9997 0.9997 0.9997 0.9997 0.9997 0.9997 0.9997 0.9997 0.9997 0.9997 0.9997 0.9997 0.9997 0.9997 0.9997 0.9997 0.9997 0.9997 
0.9997 0.9997 0.9997 0.9997 0.9997 0.9997 0.9997 0.9997 0.9997 0.9997 0.9997 0.9997 0.9997 0.9997 0.9997 0.9997 0.9997 0.9997 0.9997 0.9997 0.9997 
0.9997 0.9997 0.9997 0.9997 0.9997 0.9997 0.9997 0.9997 0.9997 0.9997 0.9997 0.9997 0.9997 0.9997 0.9997 0.9997 0.9997 0.9997 0.9997 0.9997 0.9997 
0.9997 0.9997 0.9997 0.9997 0.9997 0.9997 0.9997 0.9997 0.9997 0.9997 0.9997 0.9997 0.9997 0.9997 0.9997 0.9997 0.9997 0.9997 0.9997 0.9997 0.9997 
0.9997 0.9997 0.9997 0.9997 0.9997 0.9997 0.9997 0.9997 0.9997 0.9997 0.9997 0.9997 0.9997 0.9997 0.9997 0.9997 0.9997 0.9997 0.9997 0.9997 0.9997 
0.9997 0.9997 0.9997 0.9997 0.9997 0.9997 0.9997 0.9997 0.9997 0.9997 0.9997 0.9997 0.9997 0.9997 0.9997 0.9997 0.9997 0.9997 0.9997 0.9997 0.9997 
0.9997 0.9997 0.9997 0.9997 0.9997 0.9997 0.9997 0.9997 0.9997 0.9997 0.9997 0.9997 0.9997 0.9997 0.9997 0.9997 0.9997 0.9997 0.9997 0.9997 0.9997 
0.9997 0.9997 0.9997 0.9997 0.9997 0.9997 0.9997 0.9997 0.9997 0.9997 0.9997 0.9997 0.9997 0.9997 0.9997 0.9997 0.9997 0.9997 0.9997 0.9997 0.9997 
0.9997 0.9997 0.9997 0.9997 0.9997 0.9997 0.9997 0.9997 0.9997 0.9997 0.9997 0.9997 0.9997 0.9997 0.9997 0.9997 0.9997 0.9997 0.9997 0.9997 0.9997 
0.9997 0.9997 0.9997 0.9997 0.9997 0.9997 0.9997 0.9997 0.9997 0.9997 0.9997 0.9997 0.9997 0.9997 0.9997 0.9997 0.9997 0.9997 0.9997 0.9997 0.9997 
0.9997 0.9997 0.9997 0.9997 0.9997 0.9997 0.9997 0.9997 0.9997 0.9997 0.9997 0.9997 0.9997 0.9997 0.9997 0.9997 0.9997 0.9997 0.9997 0.9997 0.9997 
0.9997 0.9997 0.9997 0.9997 0.9997 0.9997 0.9997 0.9997 0.9997 0.9997 0.9997 0.9997 0.9997 0.9997 0.9997 0.9997 0.9997 0.9997 0.9997 0.9997 0.9997 
0.9997 0.9997 0.9997 0.9997 0.9997 0.9997 0.9997 0.9997 0.9997 0.9997 0.9997 0.9997 0.9997 0.9997 0.9997 0.9997 0.9997 0.9997 0.9997 0.9997 0.9997 
0.9997 0.9997 0.9997 0.9997 0.9997 0.9997 0.9997 0.9997 0.9997 0.9997 0.9997 0.9997 0.9997 0.9997 0.9997 0.9997 0.9997 0.9997 0.9997 0.9997 0.9997 
0.9997 0.9997 0.9997 0.9997 0.9997 0.9997 0.9997 0.9997 0.9997 0.9997 0.9997 0.9997 0.9997 0.9997 0.9997 0.9997 0.9997 0.9997 0.9997 0.9997 0.9997 
0.9997 0.9997 0.9997 0.9997 0.9997 0.9997 0.9997 0.9997 0.9997 0.9997 0.9997 0.9997 0.9997 0.9997 0.9997 0.9997 0.9997 0.9997 0.9997 0.9997 0.9997 
0.9997 0.9997 0.9997 0.9997 0.9997 0.9997 0.9997 0.9997 0.9997 0.9997 0.9997 0.9997 0.9997 0.9997 0.9997 0.9997 0.9997 0.9997 0.9997 0.9997 0.9997 
0.9997 0.9997 0.9997 0.9997 0.9997 0.9997 0.9997 0.9997 0.9997 0.9997 0.9997 0.9997 0.9997 0.9997 0.9997 0.9997 0.9997 0.9997 0.9997 0.9997 0.9997 
0.9997 0.9997 0.9997 0.9997 0.9997 0.9997 0.9997 0.9997 0.9997 0.9997 0.9997 0.9997 0.9997 0.9997 0.9997 0.9997 0.9997 0.9997 0.9997 0.9997 0.9997 
0.9997 0.9997 0.9997 0.9997 0.9997 0.9997 0.9997 0.9997 0.9997 0.9997 0.9997 0.9997 0.9997 0.9997 0.9997 0.9997 0.9997 0.9997 0.9997 0.9997 0.9997 
0.9997 0.9997 0.9997 0.9997 0.9997 0.9997 0.9997 0.9997 0.9997 0.9997 0.9997 0.9997 0.9997 0.9997 0.9997 0.9997 0.9997 0.9997 0.9997 0.9997 0.9997 
0.9997 0.9997 0.9997 0.9997 0.9997 0.9997 0.9997 0.9997 0.9997 0.9997 0.9997 0.9997 0.9997 0.9997 0.9997 0.9997 0.9997 0.9997 0.9997 0.9997 0.9997 
0.9997 0.9997 0.9997 0.9997 0.9997 0.9997 0.9997 0.9997 0.9997 0.9997 0.9997 0.9997 0.9997 0.9997 0.9997 0.9997 0.9997 0.9997 0.9997 0.9997 0.9997 
0.9997 0.9997 0.9997 0.9997 0.9997 0.9997 0.9997 0.9997 0.9997 0.9997 0.9997 0.9997 0.9997 0.9997 0.9997 0.9997 0.9997 0.9997 0.9997 0.9997 0.9997 
0.9997 0.9997 0.9997 0.9997 0.9997 0.9997 0.9997 0.9997 0.9997 0.9997 0.9997 0.9997 0.9997 0.9997 0.9997 0.9997 0.9997 0.9997 0.9997 0.9997 0.9997 
0.9997 0.9997 0.9997 0.9997 0.9997 0.9997 0.9997 0.9997 0.9997 0.9997 0.9997 0.9997 0.9997 0.9997 0.9997 0.9997 0.9997 0.9997 0.9997 0.9997 0.9997 
0.9997 0.9997 0.9997 0.9997 0.9997 0.9997 0.9997 0.9997 0.9997 0.9997 0.9997 0.9997 0.9997 0.9997 0.9997 0.9997 0.9997 0.9997 0.9997 0.9997 0.9997 
0.9997 0.9997 0.9997 0.9997 0.9997 0.9997 0.9997 0.9997 0.9997 0.9997 0.9997 0.9997 0.9997 0.9997 0.9997 0.9997 0.9997 0.9997 0.9997 0.9997 0.9997 
0.9997 0.9997 0.9997 0.9997 0.9997 0.9997 0.9997 0.9997 0.9997 0.9997 0.9997 0.9997 0.9997 0.9997 0.9997 0.9997 0.9997 0.9997 0.9997 0.9997 0.9997 
0.9997 0.9997 0.9997 0.9997 0.9997 0.9997 0.9997 0.9997 0.9997 0.9997 0.9997 0.9997 0.9997 0.9997 0.9997 0.9997 0.9997 0.9997 0.9997 0.9997 0.9997 
0.9997 0.9997 0.9997 0.9997 0.9997 0.9997 0.9997 0.9997 0.9997 0.9997 0.9997 0.9997 0.9997 0.9997 0.9997 0.9997 0.9997 0.9997 0.9997 0.9997 0.9997 
0.9997 0.9997 0.9997 0.9997 0.9997 0.9997 0.9997 0.9997 0.9997 0.9997 0.9997 0.9997 0.9997 0.9997 0.9997 0.9997 0.9997 0.9997 0.9997 0.9997 0.9997 
0.9997 0.9997 0.9997 0.9997 0.9997 0.9997 0.9997 0.9997 0.9997 0.9997 0.9997 0.9997 0.9997 0.9997 0.9997 0.9997 0.9997 0.9997 0.9997 0.9997 0.9997 
0.9997 0.9997 0.9997 0.9997 0.9997 0.9997 0.9997 0.9997 0.9997 0.9997 0.9997 0.9997 0.9997 0.9997 0.9997 0.9997 0.9997 0.9997 0.9997 0.9997 0.9997 
0.9997 0.9997 0.9997 0.9997 0.9997 0.9997 0.9997 0.9997 0.9997 0.9997 0.9997 0.9997 0.9997 0.9997 0.9997 0.9997 0.9997 0.9997 0.9997 0.9997 0.9997 
0.9997 0.9997 0.9997 0.9997 0.9997 0.9997 0.9997 0.9997 0.9997 0.9997 0.9997 0.9997 0.9997 0.9997 0.9997 0.9997 0.9997 0.9997 0.9997 0.9997 0.9997 
0.9997 0.9997 0.9997 0.9997 0.9997 0.9997 0.9997 0.9997 0.9997 0.9997 0.9997 0.9997 0.9997 0.9997 0.9997 0.9997 0.9997 0.9997 0.9997 0.9997 0.9997 
</DataArray>
</PointData>
</Piece>
</ImageData>
</VTKFile>
