<VTKFile type="ImageData">
<ImageData Origin="0 -10 0" Spacing="0.5 0.5 1" WholeExtent="0 20 0 40 0 0">
<Piece Extent="0 20 0 40 0 0">
<PointData>
<DataArray Name="f" NumberOfComponents="1" format="ascii" type="Float64">
1.551e-08 3.717e-09 7.091e-10 1.038e-10 1.116e-11 8.377e-13 4.109e-14 1.201e-15 1.808e-17 1.055e-19 0 0 0 0 0 0 0 0 0 0 0 
5.325e-07 1.782e-07 4.936e-08 1.1e-08 1.908e-09 2.485e-10 2.327e-11 1.486e-12 6.032e-14 1.403e-15 1.559e-17 5.519e-20 0 0 0 0 0 0 0 0 0 
9.529e-06 4.201e-06 1.584e-06 4.988e-07 1.277e-07 2.583e-08 4e-09 4.574e-10 3.7e-11 2.005e-12 6.728e-14 1.234e-15 9.664e-18 1.561e-20 0 0 0 0 0 0 0 
9.839e-05 5.441e-05 2.647e-05 1.109e-05 3.916e-06 1.137e-06 2.649e-07 4.817e-08 6.637e-09 6.694e-10 4.732e-11 2.211e-12 6.24e-14 9.05e-16 4.608e-18 0 0 0 0 0 0 
0.0006415 0.0004256 0.0002547 0.000135 6.214e-05 2.434e-05 7.944e-06 2.114e-06 4.483e-07 7.391e-08 9.219e-09 8.416e-10 5.384e-11 2.266e-12 5.648e-14 6.718e-16 1.855e-18 0 0 0 0 
0.002867 0.002185 0.001536 0.0009788 0.0005553 0.0002753 0.000117 4.175e-05 1.227e-05 2.905e-06 5.417e-07 7.751e-08 8.246e-09 6.255e-10 3.185e-11 9.852e-13 1.518e-14 6.257e-17 0 0 0 
0.009502 0.008009 0.006351 0.004662 0.003111 0.001853 0.0009669 0.0004331 0.0001631 5.056e-05 1.26e-05 2.458e-06 3.638e-07 3.916e-08 2.887e-09 1.318e-10 3.053e-12 1.95e-14 1.785e-18 0 0 
0.02484 0.02244 0.01944 0.0159 0.01206 0.008337 0.005148 0.002783 0.00129 0.0005006 0.0001589 4.014e-05 7.807e-06 1.121e-06 1.117e-07 7.014e-09 2.286e-10 2.218e-12 8.828e-16 1.66e-19 0 
0.05352 0.05055 0.04653 0.0412 0.03452 0.02688 0.01909 0.01211 0.006713 0.003175 0.001249 0.000397 9.864e-05 1.835e-05 2.406e-06 2.022e-07 9.083e-09 1.331e-10 1.615e-13 8.906e-17 0 
0.09804 0.09498 0.09083 0.0849 0.07649 0.06537 0.05203 0.03779 0.02448 0.01381 0.006597 0.002593 0.0008092 0.0001921 3.267e-05 3.635e-06 2.231e-07 4.922e-09 1.47e-11 1.934e-14 0 
0.1556 0.1528 0.1493 0.1443 0.1365 0.1248 0.1085 0.0881 0.06526 0.04304 0.02457 0.01177 0.004561 0.001369 0.0003 4.396e-05 3.681e-06 1.217e-07 7.801e-10 2.146e-12 0 
0.2162 0.2139 0.2113 0.208 0.2027 0.1938 0.1796 0.1589 0.1315 0.09938 0.06664 0.03839 0.0183 0.006899 0.001941 0.0003744 4.283e-05 2.116e-06 2.65e-08 1.393e-10 0 
0.2634 0.2624 0.261 0.2594 0.2567 0.252 0.2435 0.229 0.2065 0.1747 0.1349 0.09205 0.05341 0.02515 0.009068 0.002305 0.0003615 2.665e-05 6.111e-07 5.768e-09 0 
0.2803 0.2824 0.2829 0.2828 0.2822 0.2808 0.2777 0.2716 0.26 0.2397 0.2082 0.1651 0.1151 0.06717 0.03096 0.0104 0.002247 0.0002473 9.926e-06 1.613e-07 0 
0.2561 0.2648 0.2688 0.2705 0.2714 0.272 0.2723 0.272 0.2701 0.2642 0.2507 0.2252 0.1847 0.132 0.07746 0.03444 0.01032 0.0017 0.000116 3.161e-06 0 
0.194 0.2119 0.2217 0.2264 0.2289 0.2306 0.2324 0.2347 0.2375 0.2404 0.2418 0.2382 0.2234 0.1915 0.1414 0.0831 0.03474 0.008618 0.0009833 4.44e-05 0 
0.1148 0.139 0.1549 0.1636 0.1682 0.171 0.1734 0.1762 0.18 0.1854 0.1925 0.2007 0.2072 0.2056 0.1865 0.1435 0.08399 0.03164 0.006014 0.0004514 0 
0.04869 0.06991 0.08749 0.09899 0.1058 0.1099 0.1127 0.1153 0.1186 0.1233 0.1299 0.1393 0.1517 0.1659 0.1769 0.1731 0.1407 0.08112 0.02595 0.003316 0 
0.01294 0.02446 0.0371 0.04749 0.05486 0.05971 0.06293 0.06542 0.06793 0.07111 0.07555 0.08196 0.09125 0.1045 0.1225 0.1428 0.1549 0.1361 0.07515 0.0173 0 
0.001639 0.005142 0.01067 0.01667 0.02201 0.02618 0.02923 0.0315 0.03342 0.03544 0.03799 0.04154 0.04666 0.0542 0.06547 0.08246 0.1069 0.134 0.131 0.06142 0 
1.849e-05 0.0005187 0.001842 0.003891 0.006287 0.008632 0.01068 0.01235 0.01374 0.01502 0.01641 0.01815 0.02056 0.02405 0.02925 0.03722 0.04982 0.07061 0.1054 0.1308 0.1051 
0 3.289e-05 0.0001915 0.0005702 0.00119 0.001987 0.002858 0.00371 0.004498 0.005227 0.005953 0.00677 0.007809 0.009254 0.01138 0.01465 0.01986 0.02855 0.04536 0.08027 0.1046 
0 1.564e-06 1.324e-05 5.428e-05 0.0001482 0.0003096 0.0005357 0.0008093 0.001109 0.001418 0.001736 0.002079 0.002483 0.003008 0.003752 0.004874 0.006657 0.009633 0.01565 0.03097 0.0509 
0 5.414e-08 6.261e-07 3.422e-06 1.212e-05 3.192e-05 6.775e-05 0.0001223 0.0001951 0.0002839 0.0003863 0.0005026 0.0006381 0.0008063 0.001032 0.001361 0.001871 0.002714 0.004484 0.009414 0.01746 
0 1.318e-09 2.008e-08 1.427e-07 6.47e-07 2.145e-06 5.629e-06 1.233e-05 2.342e-05 3.979e-05 6.199e-05 9.047e-05 0.0001261 0.0001711 0.0002303 0.0003129 0.0004368 0.0006359 0.001068 0.002357 0.004764 
0 2.163e-11 4.244e-10 3.857e-09 2.216e-08 9.21e-08 2.995e-07 8.025e-07 1.841e-06 3.723e-06 6.799e-06 1.144e-05 1.806e-05 2.72e-05 3.97e-05 5.718e-05 8.272e-05 0.0001224 0.0002104 0.0004875 0.001062 
0 2.272e-13 5.67e-12 6.52e-11 4.713e-10 2.449e-09 9.877e-09 3.255e-08 9.101e-08 2.221e-07 4.84e-07 9.602e-07 1.762e-06 3.035e-06 4.971e-06 7.854e-06 1.216e-05 1.876e-05 3.375e-05 8.285e-05 0.0001942 
0 1.434e-15 4.519e-14 6.544e-13 5.935e-12 3.853e-11 1.932e-10 7.87e-10 2.702e-09 8.043e-09 2.121e-08 5.049e-08 1.1e-07 2.223e-07 4.211e-07 7.558e-07 1.3e-06 2.172e-06 4.264e-06 1.141e-05 2.9e-05 
0 5.002e-18 1.99e-16 3.629e-15 4.137e-14 3.364e-13 2.107e-12 1.068e-11 4.541e-11 1.666e-10 5.386e-10 1.561e-09 4.116e-09 9.973e-09 2.242e-08 4.711e-08 9.333e-08 1.758e-07 4.013e-07 1.237e-06 3.492e-06 
0 0 4.353e-19 1.006e-17 1.45e-16 1.489e-15 1.174e-14 7.474e-14 3.981e-13 1.822e-12 7.323e-12 2.628e-11 8.527e-11 2.528e-10 6.904e-10 1.747e-09 4.116e-09 9.082e-09 2.62e-08 1.007e-07 3.3e-07 
0 0 0 1.205e-20 2.225e-19 2.922e-18 2.942e-17 2.388e-16 1.617e-15 9.395e-15 4.777e-14 2.162e-13 8.814e-13 3.27e-12 1.111e-11 3.476e-11 1.005e-10 2.69e-10 1.097e-09 5.799e-09 2.342e-08 
0 0 0 0 0 0 2.722e-20 2.881e-19 2.54e-18 1.918e-17 1.265e-16 7.404e-16 3.895e-15 1.858e-14 8.09e-14 3.228e-13 1.183e-12 3.989e-12 2.716e-11 2.188e-10 1.171e-09 
0 0 0 0 0 0 0 0 0 1.158e-20 1.028e-19 8.086e-19 5.705e-18 3.64e-17 2.114e-16 1.121e-15 5.44e-15 2.417e-14 3.6e-13 4.928e-12 3.805e-11 
0 0 0 0 0 0 0 0 0 0 0 0 0 1.566e-20 1.292e-19 9.709e-19 6.656e-18 4.161e-17 2.171e-15 5.838e-14 7.199e-13 
0 0 0 0 0 0 0 0 0 0 0 0 0 0 0 0 0 0 4.191e-18 3.023e-16 6.704e-15 
0 0 0 0 0 0 0 0 0 0 0 0 0 0 0 0 0 0 0 4.717e-19 2.177e-17 
0 0 0 0 0 0 0 0 0 0 0 0 0 0 0 0 0 0 0 0 0 
0 0 0 0 0 0 0 0 0 0 0 0 0 0 0 0 0 0 0 0 0 
0 0 0 0 0 0 0 0 0 0 0 0 0 0 0 0 0 0 0 0 0 
0 0 0 0 0 0 0 0 0 0 0 0 0 0 0 0 0 0 0 0 0 
0 0 0 0 0 0 0 0 0 0 0 0 0 0 0 0 0 0 0 0 0 
</DataArray>
<DataArray Name="E" NumberOfComponents="1" format="ascii" type="Float64">
2.462 2.437 2.395 2.363 2.335 2.305 2.267 2.216 2.148 2.057 1.94 1.791 1.609 1.392 1.14 0.8533 0.5333 0.1826 -0.1959 -0.598 -0.8042 
2.462 2.437 2.395 2.363 2.335 2.305 2.267 2.216 2.148 2.057 1.94 1.791 1.609 1.392 1.14 0.8533 0.5333 0.1826 -0.1959 -0.598 -0.8042 
2.462 2.437 2.395 2.363 2.335 2.305 2.267 2.216 2.148 2.057 1.94 1.791 1.609 1.392 1.14 0.8533 0.5333 0.1826 -0.1959 -0.598 -0.8042 
2.462 2.437 2.395 2.363 2.335 2.305 2.267 2.216 2.148 2.057 1.94 1.791 1.609 1.392 1.14 0.8533 0.5333 0.1826 -0.1959 -0.598 -0.8042 
2.462 2.437 2.395 2.363 2.335 2.305 2.267 2.216 2.148 2.057 1.94 1.791 1.609 1.392 1.14 0.8533 0.5333 0.1826 -0.1959 -0.598 -0.8042 
2.462 2.437 2.395 2.363 2.335 2.305 2.267 2.216 2.148 2.057 1.94 1.791 1.609 1.392 1.14 0.8533 0.5333 0.1826 -0.1959 -0.598 -0.8042 
2.462 2.437 2.395 2.363 2.335 2.305 2.267 2.216 2.148 2.057 1.94 1.791 1.609 1.392 1.14 0.8533 0.5333 0.1826 -0.1959 -0.598 -0.8042 
2.462 2.437 2.395 2.363 2.335 2.305 2.267 2.216 2.148 2.057 1.94 1.791 1.609 1.392 1.14 0.8533 0.5333 0.1826 -0.1959 -0.598 -0.8042 
2.462 2.437 2.395 2.363 2.335 2.305 2.267 2.216 2.148 2.057 1.94 1.791 1.609 1.392 1.14 0.8533 0.5333 0.1826 -0.1959 -0.598 -0.8042 
2.462 2.437 2.395 2.363 2.335 2.305 2.267 2.216 2.148 2.057 1.94 1.791 1.609 1.392 1.14 0.8533 0.5333 0.1826 -0.1959 -0.598 -0.8042 
2.462 2.437 2.395 2.363 2.335 2.305 2.267 2.216 2.148 2.057 1.94 1.791 1.609 1.392 1.14 0.8533 0.5333 0.1826 -0.1959 -0.598 -0.8042 
2.462 2.437 2.395 2.363 2.335 2.305 2.267 2.216 2.148 2.057 1.94 1.791 1.609 1.392 1.14 0.8533 0.5333 0.1826 -0.1959 -0.598 -0.8042 
2.462 2.437 2.395 2.363 2.335 2.305 2.267 2.216 2.148 2.057 1.94 1.791 1.609 1.392 1.14 0.8533 0.5333 0.1826 -0.1959 -0.598 -0.8042 
2.462 2.437 2.395 2.363 2.335 2.305 2.267 2.216 2.148 2.057 1.94 1.791 1.609 1.392 1.14 0.8533 0.5333 0.1826 -0.1959 -0.598 -0.8042 
2.462 2.437 2.395 2.363 2.335 2.305 2.267 2.216 2.148 2.057 1.94 1.791 1.609 1.392 1.14 0.8533 0.5333 0.1826 -0.1959 -0.598 -0.8042 
2.462 2.437 2.395 2.363 2.335 2.305 2.267 2.216 2.148 2.057 1.94 1.791 1.609 1.392 1.14 0.8533 0.5333 0.1826 -0.1959 -0.598 -0.8042 
2.462 2.437 2.395 2.363 2.335 2.305 2.267 2.216 2.148 2.057 1.94 1.791 1.609 1.392 1.14 0.8533 0.5333 0.1826 -0.1959 -0.598 -0.8042 
2.462 2.437 2.395 2.363 2.335 2.305 2.267 2.216 2.148 2.057 1.94 1.791 1.609 1.392 1.14 0.8533 0.5333 0.1826 -0.1959 -0.598 -0.8042 
2.462 2.437 2.395 2.363 2.335 2.305 2.267 2.216 2.148 2.057 1.94 1.791 1.609 1.392 1.14 0.8533 0.5333 0.1826 -0.1959 -0.598 -0.8042 
2.462 2.437 2.395 2.363 2.335 2.305 2.267 2.216 2.148 2.057 1.94 1.791 1.609 1.392 1.14 0.8533 0.5333 0.1826 -0.1959 -0.598 -0.8042 
2.462 2.437 2.395 2.363 2.335 2.305 2.267 2.216 2.148 2.057 1.94 1.791 1.609 1.392 1.14 0.8533 0.5333 0.1826 -0.1959 -0.598 -0.8042 
2.462 2.437 2.395 2.363 2.335 2.305 2.267 2.216 2.148 2.057 1.94 1.791 1.609 1.392 1.14 0.8533 0.5333 0.1826 -0.1959 -0.598 -0.8042 
2.462 2.437 2.395 2.363 2.335 2.305 2.267 2.216 2.148 2.057 1.94 1.791 1.609 1.392 1.14 0.8533 0.5333 0.1826 -0.1959 -0.598 -0.8042 
2.462 2.437 2.395 2.363 2.335 2.305 2.267 2.216 2.148 2.057 1.94 1.791 1.609 1.392 1.14 0.8533 0.5333 0.1826 -0.1959 -0.598 -0.8042 
2.462 2.437 2.395 2.363 2.335 2.305 2.267 2.216 2.148 2.057 1.94 1.791 1.609 1.392 1.14 0.8533 0.5333 0.1826 -0.1959 -0.598 -0.8042 
2.462 2.437 2.395 2.363 2.335 2.305 2.267 2.216 2.148 2.057 1.94 1.791 1.609 1.392 1.14 0.8533 0.5333 0.1826 -0.1959 -0.598 -0.8042 
2.462 2.437 2.395 2.363 2.335 2.305 2.267 2.216 2.148 2.057 1.94 1.791 1.609 1.392 1.14 0.8533 0.5333 0.1826 -0.1959 -0.598 -0.8042 
2.462 2.437 2.395 2.363 2.335 2.305 2.267 2.216 2.148 2.057 1.94 1.791 1.609 1.392 1.14 0.8533 0.5333 0.1826 -0.1959 -0.598 -0.8042 
2.462 2.437 2.395 2.363 2.335 2.305 2.267 2.216 2.148 2.057 1.94 1.791 1.609 1.392 1.14 0.8533 0.5333 0.1826 -0.1959 -0.598 -0.8042 
2.462 2.437 2.395 2.363 2.335 2.305 2.267 2.216 2.148 2.057 1.94 1.791 1.609 1.392 1.14 0.8533 0.5333 0.1826 -0.1959 -0.598 -0.8042 
2.462 2.437 2.395 2.363 2.335 2.305 2.267 2.216 2.148 2.057 1.94 1.791 1.609 1.392 1.14 0.8533 0.5333 0.1826 -0.1959 -0.598 -0.8042 
2.462 2.437 2.395 2.363 2.335 2.305 2.267 2.216 2.148 2.057 1.94 1.791 1.609 1.392 1.14 0.8533 0.5333 0.1826 -0.1959 -0.598 -0.8042 
2.462 2.437 2.395 2.363 2.335 2.305 2.267 2.216 2.148 2.057 1.94 1.791 1.609 1.392 1.14 0.8533 0.5333 0.1826 -0.1959 -0.598 -0.8042 
2.462 2.437 2.395 2.363 2.335 2.305 2.267 2.216 2.148 2.057 1.94 1.791 1.609 1.392 1.14 0.8533 0.5333 0.1826 -0.1959 -0.598 -0.8042 
2.462 2.437 2.395 2.363 2.335 2.305 2.267 2.216 2.148 2.057 1.94 1.791 1.609 1.392 1.14 0.8533 0.5333 0.1826 -0.1959 -0.598 -0.8042 
2.462 2.437 2.395 2.363 2.335 2.305 2.267 2.216 2.148 2.057 1.94 1.791 1.609 1.392 1.14 0.8533 0.5333 0.1826 -0.1959 -0.598 -0.8042 
2.462 2.437 2.395 2.363 2.335 2.305 2.267 2.216 2.148 2.057 1.94 1.791 1.609 1.392 1.14 0.8533 0.5333 0.1826 -0.1959 -0.598 -0.8042 
2.462 2.437 2.395 2.363 2.335 2.305 2.267 2.216 2.148 2.057 1.94 1.791 1.609 1.392 1.14 0.8533 0.5333 0.1826 -0.1959 -0.598 -0.8042 
2.462 2.437 2.395 2.363 2.335 2.305 2.267 2.216 2.148 2.057 1.94 1.791 1.609 1.392 1.14 0.8533 0.5333 0.1826 -0.1959 -0.598 -0.8042 
2.462 2.437 2.395 2.363 2.335 2.305 2.267 2.216 2.148 2.057 1.94 1.791 1.609 1.392 1.14 0.8533 0.5333 0.1826 -0.1959 -0.598 -0.8042 
2.462 2.437 2.395 2.363 2.335 2.305 2.267 2.216 2.148 2.057 1.94 1.791 1.609 1.392 1.14 0.8533 0.5333 0.1826 -0.1959 -0.598 -0.8042 
</DataArray>
<DataArray Name="ne" NumberOfComponents="1" format="ascii" type="Float64">
0.8596 0.9014 0.9294 0.943 0.9442 0.9345 0.9143 0.8839 0.8435 0.7936 0.7355 0.6708 0.6017 0.5307 0.4602 0.3921 0.3281 0.2691 0.2167 0.1752 0.1453 
0.8596 0.9014 0.9294 0.943 0.9442 0.9345 0.9143 0.8839 0.8435 0.7936 0.7355 0.6708 0.6017 0.5307 0.4602 0.3921 0.3281 0.2691 0.2167 0.1752 0.1453 
0.8596 0.9014 0.9294 0.943 0.9442 0.9345 0.9143 0.8839 0.8435 0.7936 0.7355 0.6708 0.6017 0.5307 0.4602 0.3921 0.3281 0.2691 0.2167 0.1752 0.1453 
0.8596 0.9014 0.9294 0.943 0.9442 0.9345 0.9143 0.8839 0.8435 0.7936 0.7355 0.6708 0.6017 0.5307 0.4602 0.3921 0.3281 0.2691 0.2167 0.1752 0.1453 
0.8596 0.9014 0.9294 0.943 0.9442 0.9345 0.9143 0.8839 0.8435 0.7936 0.7355 0.6708 0.6017 0.5307 0.4602 0.3921 0.3281 0.2691 0.2167 0.1752 0.1453 
0.8596 0.9014 0.9294 0.943 0.9442 0.9345 0.9143 0.8839 0.8435 0.7936 0.7355 0.6708 0.6017 0.5307 0.4602 0.3921 0.3281 0.2691 0.2167 0.1752 0.1453 
0.8596 0.9014 0.9294 0.943 0.9442 0.9345 0.9143 0.8839 0.8435 0.7936 0.7355 0.6708 0.6017 0.5307 0.4602 0.3921 0.3281 0.2691 0.2167 0.1752 0.1453 
0.8596 0.9014 0.9294 0.943 0.9442 0.9345 0.9143 0.8839 0.8435 0.7936 0.7355 0.6708 0.6017 0.5307 0.4602 0.3921 0.3281 0.2691 0.2167 0.1752 0.1453 
0.8596 0.9014 0.9294 0.943 0.9442 0.9345 0.9143 0.8839 0.8435 0.7936 0.7355 0.6708 0.6017 0.5307 0.4602 0.3921 0.3281 0.2691 0.2167 0.1752 0.1453 
0.8596 0.9014 0.9294 0.943 0.9442 0.9345 0.9143 0.8839 0.8435 0.7936 0.7355 0.6708 0.6017 0.5307 0.4602 0.3921 0.3281 0.2691 0.2167 0.1752 0.1453 
0.8596 0.9014 0.9294 0.943 0.9442 0.9345 0.9143 0.8839 0.8435 0.7936 0.7355 0.6708 0.6017 0.5307 0.4602 0.3921 0.3281 0.2691 0.2167 0.1752 0.1453 
0.8596 0.9014 0.9294 0.943 0.9442 0.9345 0.9143 0.8839 0.8435 0.7936 0.7355 0.6708 0.6017 0.5307 0.4602 0.3921 0.3281 0.2691 0.2167 0.1752 0.1453 
0.8596 0.9014 0.9294 0.943 0.9442 0.9345 0.9143 0.8839 0.8435 0.7936 0.7355 0.6708 0.6017 0.5307 0.4602 0.3921 0.3281 0.2691 0.2167 0.1752 0.1453 
0.8596 0.9014 0.9294 0.943 0.9442 0.9345 0.9143 0.8839 0.8435 0.7936 0.7355 0.6708 0.6017 0.5307 0.4602 0.3921 0.3281 0.2691 0.2167 0.1752 0.1453 
0.8596 0.9014 0.9294 0.943 0.9442 0.9345 0.9143 0.8839 0.8435 0.7936 0.7355 0.6708 0.6017 0.5307 0.4602 0.3921 0.3281 0.2691 0.2167 0.1752 0.1453 
0.8596 0.9014 0.9294 0.943 0.9442 0.9345 0.9143 0.8839 0.8435 0.7936 0.7355 0.6708 0.6017 0.5307 0.4602 0.3921 0.3281 0.2691 0.2167 0.1752 0.1453 
0.8596 0.9014 0.9294 0.943 0.9442 0.9345 0.9143 0.8839 0.8435 0.7936 0.7355 0.6708 0.6017 0.5307 0.4602 0.3921 0.3281 0.2691 0.2167 0.1752 0.1453 
0.8596 0.9014 0.9294 0.943 0.9442 0.9345 0.9143 0.8839 0.8435 0.7936 0.7355 0.6708 0.6017 0.5307 0.4602 0.3921 0.3281 0.2691 0.2167 0.1752 0.1453 
0.8596 0.9014 0.9294 0.943 0.9442 0.9345 0.9143 0.8839 0.8435 0.7936 0.7355 0.6708 0.6017 0.5307 0.4602 0.3921 0.3281 0.2691 0.2167 0.1752 0.1453 
0.8596 0.9014 0.9294 0.943 0.9442 0.9345 0.9143 0.8839 0.8435 0.7936 0.7355 0.6708 0.6017 0.5307 0.4602 0.3921 0.3281 0.2691 0.2167 0.1752 0.1453 
0.8596 0.9014 0.9294 0.943 0.9442 0.9345 0.9143 0.8839 0.8435 0.7936 0.7355 0.6708 0.6017 0.5307 0.4602 0.3921 0.3281 0.2691 0.2167 0.1752 0.1453 
0.8596 0.9014 0.9294 0.943 0.9442 0.9345 0.9143 0.8839 0.8435 0.7936 0.7355 0.6708 0.6017 0.5307 0.4602 0.3921 0.3281 0.2691 0.2167 0.1752 0.1453 
0.8596 0.9014 0.9294 0.943 0.9442 0.9345 0.9143 0.8839 0.8435 0.7936 0.7355 0.6708 0.6017 0.5307 0.4602 0.3921 0.3281 0.2691 0.2167 0.1752 0.1453 
0.8596 0.9014 0.9294 0.943 0.9442 0.9345 0.9143 0.8839 0.8435 0.7936 0.7355 0.6708 0.6017 0.5307 0.4602 0.3921 0.3281 0.2691 0.2167 0.1752 0.1453 
0.8596 0.9014 0.9294 0.943 0.9442 0.9345 0.9143 0.8839 0.8435 0.7936 0.7355 0.6708 0.6017 0.5307 0.4602 0.3921 0.3281 0.2691 0.2167 0.1752 0.1453 
0.8596 0.9014 0.9294 0.943 0.9442 0.9345 0.9143 0.8839 0.8435 0.7936 0.7355 0.6708 0.6017 0.5307 0.4602 0.3921 0.3281 0.2691 0.2167 0.1752 0.1453 
0.8596 0.9014 0.9294 0.943 0.9442 0.9345 0.9143 0.8839 0.8435 0.7936 0.7355 0.6708 0.6017 0.5307 0.4602 0.3921 0.3281 0.2691 0.2167 0.1752 0.1453 
0.8596 0.9014 0.9294 0.943 0.9442 0.9345 0.9143 0.8839 0.8435 0.7936 0.7355 0.6708 0.6017 0.5307 0.4602 0.3921 0.3281 0.2691 0.2167 0.1752 0.1453 
0.8596 0.9014 0.9294 0.943 0.9442 0.9345 0.9143 0.8839 0.8435 0.7936 0.7355 0.6708 0.6017 0.5307 0.4602 0.3921 0.3281 0.2691 0.2167 0.1752 0.1453 
0.8596 0.9014 0.9294 0.943 0.9442 0.9345 0.9143 0.8839 0.8435 0.7936 0.7355 0.6708 0.6017 0.5307 0.4602 0.3921 0.3281 0.2691 0.2167 0.1752 0.1453 
0.8596 0.9014 0.9294 0.943 0.9442 0.9345 0.9143 0.8839 0.8435 0.7936 0.7355 0.6708 0.6017 0.5307 0.4602 0.3921 0.3281 0.2691 0.2167 0.1752 0.1453 
0.8596 0.9014 0.9294 0.943 0.9442 0.9345 0.9143 0.8839 0.8435 0.7936 0.7355 0.6708 0.6017 0.5307 0.4602 0.3921 0.3281 0.2691 0.2167 0.1752 0.1453 
0.8596 0.9014 0.9294 0.943 0.9442 0.9345 0.9143 0.8839 0.8435 0.7936 0.7355 0.6708 0.6017 0.5307 0.4602 0.3921 0.3281 0.2691 0.2167 0.1752 0.1453 
0.8596 0.9014 0.9294 0.943 0.9442 0.9345 0.9143 0.8839 0.8435 0.7936 0.7355 0.6708 0.6017 0.5307 0.4602 0.3921 0.3281 0.2691 0.2167 0.1752 0.1453 
0.8596 0.9014 0.9294 0.943 0.9442 0.9345 0.9143 0.8839 0.8435 0.7936 0.7355 0.6708 0.6017 0.5307 0.4602 0.3921 0.3281 0.2691 0.2167 0.1752 0.1453 
0.8596 0.9014 0.9294 0.943 0.9442 0.9345 0.9143 0.8839 0.8435 0.7936 0.7355 0.6708 0.6017 0.5307 0.4602 0.3921 0.3281 0.2691 0.2167 0.1752 0.1453 
0.8596 0.9014 0.9294 0.943 0.9442 0.9345 0.9143 0.8839 0.8435 0.7936 0.7355 0.6708 0.6017 0.5307 0.4602 0.3921 0.3281 0.2691 0.2167 0.1752 0.1453 
0.8596 0.9014 0.9294 0.943 0.9442 0.9345 0.9143 0.8839 0.8435 0.7936 0.7355 0.6708 0.6017 0.5307 0.4602 0.3921 0.3281 0.2691 0.2167 0.1752 0.1453 
0.8596 0.9014 0.9294 0.943 0.9442 0.9345 0.9143 0.8839 0.8435 0.7936 0.7355 0.6708 0.6017 0.5307 0.4602 0.3921 0.3281 0.2691 0.2167 0.1752 0.1453 
0.8596 0.9014 0.9294 0.943 0.9442 0.9345 0.9143 0.8839 0.8435 0.7936 0.7355 0.6708 0.6017 0.5307 0.4602 0.3921 0.3281 0.2691 0.2167 0.1752 0.1453 
0.8596 0.9014 0.9294 0.943 0.9442 0.9345 0.9143 0.8839 0.8435 0.7936 0.7355 0.6708 0.6017 0.5307 0.4602 0.3921 0.3281 0.2691 0.2167 0.1752 0.1453 
</DataArray>
</PointData>
</Piece>
</ImageData>
</VTKFile>
