<VTKFile type="ImageData">
<ImageData Origin="0 -10 0" Spacing="0.5 0.5 1" WholeExtent="0 20 0 40 0 0">
<Piece Extent="0 20 0 40 0 0">
<PointData>
<DataArray Name="f" NumberOfComponents="1" format="ascii" type="Float64">
0.1387 0.1375 0.1368 0.1362 0.1357 0.1352 0.1348 0.1345 0.1343 0.1341 0.134 0.134 0.1341 0.1342 0.1344 0.1348 0.1352 0.1358 0.1364 0.1369 0.1387 
0.1701 0.169 0.1684 0.1678 0.1673 0.1669 0.1665 0.1662 0.166 0.1659 0.1658 0.1658 0.1658 0.166 0.1662 0.1665 0.1669 0.1673 0.1681 0.1684 0.1701 
0.1949 0.1942 0.1937 0.1933 0.193 0.1926 0.1924 0.1921 0.192 0.1919 0.1918 0.1918 0.1919 0.1919 0.1922 0.1923 0.1927 0.1929 0.1936 0.1937 0.1949 
0.2085 0.2083 0.2082 0.208 0.2079 0.2078 0.2077 0.2076 0.2076 0.2074 0.2075 0.2074 0.2075 0.2074 0.2076 0.2076 0.2078 0.2078 0.2081 0.2081 0.2085 
0.2081 0.2085 0.2088 0.209 0.2092 0.2093 0.2094 0.2095 0.2095 0.2096 0.2096 0.2096 0.2095 0.2095 0.2094 0.2094 0.2091 0.2091 0.2087 0.2087 0.2081 
0.1935 0.1945 0.1952 0.1958 0.1962 0.1967 0.197 0.1973 0.1975 0.1976 0.1976 0.1977 0.1975 0.1975 0.1971 0.197 0.1964 0.1963 0.1952 0.1951 0.1935 
0.1675 0.1689 0.1699 0.1708 0.1715 0.1722 0.1728 0.1732 0.1735 0.1738 0.1739 0.1739 0.1737 0.1736 0.1731 0.1728 0.172 0.1716 0.1702 0.1698 0.1675 
0.1348 0.1363 0.1374 0.1385 0.1395 0.1403 0.141 0.1416 0.142 0.1424 0.1425 0.1426 0.1424 0.1422 0.1417 0.1412 0.1403 0.1396 0.1381 0.1375 0.1348 
0.1007 0.102 0.1032 0.1043 0.1053 0.1062 0.107 0.1076 0.1081 0.1085 0.1087 0.1088 0.1087 0.1085 0.108 0.1074 0.1065 0.1057 0.1042 0.1034 0.1007 
0.06975 0.07066 0.07172 0.07272 0.07364 0.07449 0.07524 0.07589 0.07643 0.07683 0.0771 0.07722 0.07718 0.07698 0.07658 0.07604 0.07524 0.0744 0.07305 0.07212 0.06975 
0.04471 0.04525 0.04609 0.04688 0.04763 0.04833 0.04897 0.04954 0.05003 0.05043 0.05071 0.05087 0.05089 0.05076 0.05047 0.05002 0.04938 0.04863 0.04753 0.04665 0.04471 
0.02649 0.02673 0.02731 0.02788 0.02842 0.02893 0.02942 0.02986 0.03026 0.03059 0.03086 0.03103 0.0311 0.03105 0.03087 0.03056 0.03009 0.0295 0.02869 0.02794 0.02649 
0.01449 0.01453 0.0149 0.01526 0.01561 0.01594 0.01626 0.01657 0.01685 0.0171 0.01732 0.01748 0.01757 0.01758 0.0175 0.01732 0.01701 0.0166 0.01605 0.01549 0.01449 
0.007308 0.007257 0.007465 0.00767 0.007869 0.008065 0.008255 0.00844 0.008616 0.00878 0.008928 0.009052 0.009141 0.009184 0.009168 0.009082 0.008915 0.008666 0.008318 0.007938 0.007308 
0.003396 0.00332 0.003427 0.003532 0.003635 0.003737 0.003837 0.003936 0.004032 0.004126 0.004214 0.004293 0.00436 0.004405 0.004421 0.004397 0.004322 0.004191 0.003995 0.003763 0.003396 
0.001453 0.001388 0.001437 0.001486 0.001534 0.001582 0.001629 0.001676 0.001723 0.001769 0.001814 0.001857 0.001897 0.00193 0.001951 0.001955 0.001932 0.001875 0.001779 0.001651 0.001453 
0.0005728 0.0005286 0.0005493 0.0005697 0.0005901 0.0006102 0.0006302 0.0006502 0.0006701 0.00069 0.0007099 0.0007297 0.0007491 0.0007673 0.0007826 0.0007921 0.0007911 0.0007738 0.0007341 0.0006718 0.0005728 
0.0002084 0.0001829 0.0001906 0.0001983 0.000206 0.0002137 0.0002213 0.000229 0.0002366 0.0002443 0.000252 0.0002598 0.0002677 0.0002757 0.0002833 0.0002899 0.0002938 0.000292 0.0002801 0.0002543 0.0002084 
7.02e-05 5.746e-05 5.99e-05 6.247e-05 6.508e-05 6.77e-05 7.032e-05 7.294e-05 7.557e-05 7.822e-05 8.089e-05 8.36e-05 8.638e-05 8.923e-05 9.215e-05 9.507e-05 9.772e-05 9.927e-05 9.777e-05 8.979e-05 7.02e-05 
2.191e-05 1.651e-05 1.705e-05 1.777e-05 1.854e-05 1.933e-05 2.013e-05 2.094e-05 2.175e-05 2.257e-05 2.339e-05 2.423e-05 2.509e-05 2.598e-05 2.69e-05 2.786e-05 2.886e-05 2.985e-05 3.047e-05 2.937e-05 2.191e-05 
6.265e-06 4.475e-06 4.444e-06 4.572e-06 4.755e-06 4.959e-06 5.173e-06 5.392e-06 5.615e-06 5.84e-06 6.068e-06 6.301e-06 6.538e-06 6.783e-06 7.037e-06 7.303e-06 7.585e-06 7.887e-06 8.215e-06 8.577e-06 6.265e-06 
1.604e-06 1.192e-06 1.089e-06 1.079e-06 1.104e-06 1.144e-06 1.192e-06 1.243e-06 1.296e-06 1.351e-06 1.407e-06 1.464e-06 1.522e-06 1.582e-06 1.645e-06 1.71e-06 1.779e-06 1.853e-06 1.933e-06 2.021e-06 1.604e-06 
3.616e-07 2.808e-07 2.512e-07 2.409e-07 2.407e-07 2.459e-07 2.539e-07 2.635e-07 2.741e-07 2.852e-07 2.968e-07 3.087e-07 3.211e-07 3.338e-07 3.471e-07 3.61e-07 3.757e-07 3.914e-07 4.083e-07 4.269e-07 3.616e-07 
9.447e-08 8.708e-08 8.468e-08 8.395e-08 8.409e-08 8.462e-08 8.531e-08 8.608e-08 8.686e-08 8.766e-08 8.848e-08 8.934e-08 9.027e-08 9.127e-08 9.238e-08 9.362e-08 9.502e-08 9.661e-08 9.844e-08 1.006e-07 9.447e-08 
1.205e-07 1.438e-07 1.573e-07 1.666e-07 1.719e-07 1.742e-07 1.742e-07 1.724e-07 1.694e-07 1.655e-07 1.61e-07 1.561e-07 1.509e-07 1.455e-07 1.401e-07 1.346e-07 1.292e-07 1.238e-07 1.184e-07 1.13e-07 1.205e-07 
4.326e-07 5.183e-07 5.675e-07 6.039e-07 6.264e-07 6.381e-07 6.411e-07 6.374e-07 6.284e-07 6.155e-07 5.997e-07 5.819e-07 5.626e-07 5.423e-07 5.213e-07 4.998e-07 4.781e-07 4.561e-07 4.339e-07 4.115e-07 4.326e-07 
1.589e-06 1.861e-06 2.014e-06 2.137e-06 2.216e-06 2.263e-06 2.282e-06 2.279e-06 2.257e-06 2.221e-06 2.174e-06 2.119e-06 2.058e-06 1.992e-06 1.923e-06 1.851e-06 1.777e-06 1.702e-06 1.625e-06 1.547e-06 1.589e-06 
5.46e-06 6.268e-06 6.702e-06 7.084e-06 7.336e-06 7.499e-06 7.578e-06 7.59e-06 7.546e-06 7.456e-06 7.329e-06 7.173e-06 6.995e-06 6.798e-06 6.588e-06 6.367e-06 6.138e-06 5.901e-06 5.658e-06 5.409e-06 5.46e-06 
1.749e-05 1.974e-05 2.088e-05 2.197e-05 2.27e-05 2.32e-05 2.347e-05 2.356e-05 2.349e-05 2.329e-05 2.297e-05 2.256e-05 2.209e-05 2.155e-05 2.096e-05 2.034e-05 1.968e-05 1.9e-05 1.829e-05 1.755e-05 1.749e-05 
5.227e-05 5.815e-05 6.086e-05 6.381e-05 6.568e-05 6.711e-05 6.791e-05 6.827e-05 6.82e-05 6.778e-05 6.705e-05 6.608e-05 6.489e-05 6.353e-05 6.202e-05 6.039e-05 5.866e-05 5.683e-05 5.492e-05 5.293e-05 5.227e-05 
0.0001457 0.0001601 0.0001661 0.0001735 0.0001779 0.0001816 0.0001837 0.0001848 0.0001849 0.0001841 0.0001826 0.0001804 0.0001776 0.0001745 0.0001709 0.0001669 0.0001627 0.0001582 0.0001534 0.0001485 0.0001457 
0.0003792 0.0004124 0.000424 0.0004418 0.000451 0.0004602 0.0004648 0.000468 0.0004684 0.0004672 0.000464 0.0004596 0.0004537 0.0004468 0.0004388 0.0004301 0.0004205 0.0004103 0.0003994 0.0003878 0.0003792 
0.0009219 0.0009933 0.001014 0.001054 0.00107 0.001092 0.0011 0.001109 0.001109 0.001108 0.001102 0.001094 0.001082 0.001068 0.001052 0.001034 0.001014 0.0009926 0.0009694 0.0009448 0.0009219 
0.002094 0.002238 0.002268 0.002354 0.002378 0.002427 0.002437 0.00246 0.002457 0.002461 0.002446 0.002435 0.00241 0.002388 0.002355 0.002323 0.002283 0.002243 0.002197 0.002149 0.002094 
0.004448 0.004716 0.004748 0.004922 0.004941 0.005054 0.00505 0.005115 0.005091 0.005118 0.005079 0.005074 0.005024 0.004993 0.004933 0.00488 0.004809 0.004738 0.004653 0.004565 0.004448 
0.008827 0.009286 0.009297 0.00964 0.00961 0.009855 0.009798 0.009953 0.009885 0.00996 0.009888 0.009899 0.009819 0.009778 0.009683 0.009598 0.00948 0.009358 0.009213 0.009057 0.008827 
0.01635 0.0171 0.01705 0.01763 0.01754 0.01794 0.01787 0.0181 0.01805 0.01815 0.0181 0.0181 0.01802 0.01794 0.01781 0.01766 0.01748 0.01727 0.01703 0.01677 0.01635 
0.0283 0.02936 0.02934 0.03007 0.03012 0.03057 0.03068 0.03092 0.03101 0.03111 0.03111 0.03108 0.03098 0.03082 0.03061 0.03036 0.03006 0.02972 0.02934 0.02894 0.0283 
0.04576 0.04726 0.04736 0.04831 0.04866 0.0492 0.04957 0.04985 0.05001 0.05007 0.05002 0.04987 0.04965 0.04935 0.04899 0.04858 0.04813 0.04764 0.04713 0.04659 0.04576 
0.06957 0.07186 0.0723 0.07345 0.07422 0.07468 0.075 0.07511 0.07506 0.07489 0.07461 0.07426 0.07385 0.0734 0.07292 0.07242 0.07191 0.07139 0.07087 0.07034 0.06957 
0.1007 0.1035 0.1042 0.1045 0.1048 0.1047 0.1045 0.1042 0.1039 0.1035 0.1031 0.1027 0.1024 0.1021 0.1018 0.1015 0.1013 0.1011 0.1009 0.1008 0.1007 
</DataArray>
<DataArray Name="E" NumberOfComponents="1" format="ascii" type="Float64">
1.749 1.732 1.7 1.671 1.642 1.616 1.591 1.566 1.543 1.52 1.498 1.476 1.454 1.431 1.408 1.384 1.359 1.332 1.303 1.272 1.256 
1.749 1.732 1.7 1.671 1.642 1.616 1.591 1.566 1.543 1.52 1.498 1.476 1.454 1.431 1.408 1.384 1.359 1.332 1.303 1.272 1.256 
1.749 1.732 1.7 1.671 1.642 1.616 1.591 1.566 1.543 1.52 1.498 1.476 1.454 1.431 1.408 1.384 1.359 1.332 1.303 1.272 1.256 
1.749 1.732 1.7 1.671 1.642 1.616 1.591 1.566 1.543 1.52 1.498 1.476 1.454 1.431 1.408 1.384 1.359 1.332 1.303 1.272 1.256 
1.749 1.732 1.7 1.671 1.642 1.616 1.591 1.566 1.543 1.52 1.498 1.476 1.454 1.431 1.408 1.384 1.359 1.332 1.303 1.272 1.256 
1.749 1.732 1.7 1.671 1.642 1.616 1.591 1.566 1.543 1.52 1.498 1.476 1.454 1.431 1.408 1.384 1.359 1.332 1.303 1.272 1.256 
1.749 1.732 1.7 1.671 1.642 1.616 1.591 1.566 1.543 1.52 1.498 1.476 1.454 1.431 1.408 1.384 1.359 1.332 1.303 1.272 1.256 
1.749 1.732 1.7 1.671 1.642 1.616 1.591 1.566 1.543 1.52 1.498 1.476 1.454 1.431 1.408 1.384 1.359 1.332 1.303 1.272 1.256 
1.749 1.732 1.7 1.671 1.642 1.616 1.591 1.566 1.543 1.52 1.498 1.476 1.454 1.431 1.408 1.384 1.359 1.332 1.303 1.272 1.256 
1.749 1.732 1.7 1.671 1.642 1.616 1.591 1.566 1.543 1.52 1.498 1.476 1.454 1.431 1.408 1.384 1.359 1.332 1.303 1.272 1.256 
1.749 1.732 1.7 1.671 1.642 1.616 1.591 1.566 1.543 1.52 1.498 1.476 1.454 1.431 1.408 1.384 1.359 1.332 1.303 1.272 1.256 
1.749 1.732 1.7 1.671 1.642 1.616 1.591 1.566 1.543 1.52 1.498 1.476 1.454 1.431 1.408 1.384 1.359 1.332 1.303 1.272 1.256 
1.749 1.732 1.7 1.671 1.642 1.616 1.591 1.566 1.543 1.52 1.498 1.476 1.454 1.431 1.408 1.384 1.359 1.332 1.303 1.272 1.256 
1.749 1.732 1.7 1.671 1.642 1.616 1.591 1.566 1.543 1.52 1.498 1.476 1.454 1.431 1.408 1.384 1.359 1.332 1.303 1.272 1.256 
1.749 1.732 1.7 1.671 1.642 1.616 1.591 1.566 1.543 1.52 1.498 1.476 1.454 1.431 1.408 1.384 1.359 1.332 1.303 1.272 1.256 
1.749 1.732 1.7 1.671 1.642 1.616 1.591 1.566 1.543 1.52 1.498 1.476 1.454 1.431 1.408 1.384 1.359 1.332 1.303 1.272 1.256 
1.749 1.732 1.7 1.671 1.642 1.616 1.591 1.566 1.543 1.52 1.498 1.476 1.454 1.431 1.408 1.384 1.359 1.332 1.303 1.272 1.256 
1.749 1.732 1.7 1.671 1.642 1.616 1.591 1.566 1.543 1.52 1.498 1.476 1.454 1.431 1.408 1.384 1.359 1.332 1.303 1.272 1.256 
1.749 1.732 1.7 1.671 1.642 1.616 1.591 1.566 1.543 1.52 1.498 1.476 1.454 1.431 1.408 1.384 1.359 1.332 1.303 1.272 1.256 
1.749 1.732 1.7 1.671 1.642 1.616 1.591 1.566 1.543 1.52 1.498 1.476 1.454 1.431 1.408 1.384 1.359 1.332 1.303 1.272 1.256 
1.749 1.732 1.7 1.671 1.642 1.616 1.591 1.566 1.543 1.52 1.498 1.476 1.454 1.431 1.408 1.384 1.359 1.332 1.303 1.272 1.256 
1.749 1.732 1.7 1.671 1.642 1.616 1.591 1.566 1.543 1.52 1.498 1.476 1.454 1.431 1.408 1.384 1.359 1.332 1.303 1.272 1.256 
1.749 1.732 1.7 1.671 1.642 1.616 1.591 1.566 1.543 1.52 1.498 1.476 1.454 1.431 1.408 1.384 1.359 1.332 1.303 1.272 1.256 
1.749 1.732 1.7 1.671 1.642 1.616 1.591 1.566 1.543 1.52 1.498 1.476 1.454 1.431 1.408 1.384 1.359 1.332 1.303 1.272 1.256 
1.749 1.732 1.7 1.671 1.642 1.616 1.591 1.566 1.543 1.52 1.498 1.476 1.454 1.431 1.408 1.384 1.359 1.332 1.303 1.272 1.256 
1.749 1.732 1.7 1.671 1.642 1.616 1.591 1.566 1.543 1.52 1.498 1.476 1.454 1.431 1.408 1.384 1.359 1.332 1.303 1.272 1.256 
1.749 1.732 1.7 1.671 1.642 1.616 1.591 1.566 1.543 1.52 1.498 1.476 1.454 1.431 1.408 1.384 1.359 1.332 1.303 1.272 1.256 
1.749 1.732 1.7 1.671 1.642 1.616 1.591 1.566 1.543 1.52 1.498 1.476 1.454 1.431 1.408 1.384 1.359 1.332 1.303 1.272 1.256 
1.749 1.732 1.7 1.671 1.642 1.616 1.591 1.566 1.543 1.52 1.498 1.476 1.454 1.431 1.408 1.384 1.359 1.332 1.303 1.272 1.256 
1.749 1.732 1.7 1.671 1.642 1.616 1.591 1.566 1.543 1.52 1.498 1.476 1.454 1.431 1.408 1.384 1.359 1.332 1.303 1.272 1.256 
1.749 1.732 1.7 1.671 1.642 1.616 1.591 1.566 1.543 1.52 1.498 1.476 1.454 1.431 1.408 1.384 1.359 1.332 1.303 1.272 1.256 
1.749 1.732 1.7 1.671 1.642 1.616 1.591 1.566 1.543 1.52 1.498 1.476 1.454 1.431 1.408 1.384 1.359 1.332 1.303 1.272 1.256 
1.749 1.732 1.7 1.671 1.642 1.616 1.591 1.566 1.543 1.52 1.498 1.476 1.454 1.431 1.408 1.384 1.359 1.332 1.303 1.272 1.256 
1.749 1.732 1.7 1.671 1.642 1.616 1.591 1.566 1.543 1.52 1.498 1.476 1.454 1.431 1.408 1.384 1.359 1.332 1.303 1.272 1.256 
1.749 1.732 1.7 1.671 1.642 1.616 1.591 1.566 1.543 1.52 1.498 1.476 1.454 1.431 1.408 1.384 1.359 1.332 1.303 1.272 1.256 
1.749 1.732 1.7 1.671 1.642 1.616 1.591 1.566 1.543 1.52 1.498 1.476 1.454 1.431 1.408 1.384 1.359 1.332 1.303 1.272 1.256 
1.749 1.732 1.7 1.671 1.642 1.616 1.591 1.566 1.543 1.52 1.498 1.476 1.454 1.431 1.408 1.384 1.359 1.332 1.303 1.272 1.256 
1.749 1.732 1.7 1.671 1.642 1.616 1.591 1.566 1.543 1.52 1.498 1.476 1.454 1.431 1.408 1.384 1.359 1.332 1.303 1.272 1.256 
1.749 1.732 1.7 1.671 1.642 1.616 1.591 1.566 1.543 1.52 1.498 1.476 1.454 1.431 1.408 1.384 1.359 1.332 1.303 1.272 1.256 
1.749 1.732 1.7 1.671 1.642 1.616 1.591 1.566 1.543 1.52 1.498 1.476 1.454 1.431 1.408 1.384 1.359 1.332 1.303 1.272 1.256 
1.749 1.732 1.7 1.671 1.642 1.616 1.591 1.566 1.543 1.52 1.498 1.476 1.454 1.431 1.408 1.384 1.359 1.332 1.303 1.272 1.256 
</DataArray>
<DataArray Name="ne" NumberOfComponents="1" format="ascii" type="Float64">
0.9317 0.9337 0.9388 0.9419 0.9455 0.9481 0.9506 0.9525 0.954 0.9551 0.9557 0.9558 0.9554 0.9544 0.953 0.9508 0.9483 0.9446 0.9412 0.9355 0.9319 
0.9317 0.9337 0.9388 0.9419 0.9455 0.9481 0.9506 0.9525 0.954 0.9551 0.9557 0.9558 0.9554 0.9544 0.953 0.9508 0.9483 0.9446 0.9412 0.9355 0.9319 
0.9317 0.9337 0.9388 0.9419 0.9455 0.9481 0.9506 0.9525 0.954 0.9551 0.9557 0.9558 0.9554 0.9544 0.953 0.9508 0.9483 0.9446 0.9412 0.9355 0.9319 
0.9317 0.9337 0.9388 0.9419 0.9455 0.9481 0.9506 0.9525 0.954 0.9551 0.9557 0.9558 0.9554 0.9544 0.953 0.9508 0.9483 0.9446 0.9412 0.9355 0.9319 
0.9317 0.9337 0.9388 0.9419 0.9455 0.9481 0.9506 0.9525 0.954 0.9551 0.9557 0.9558 0.9554 0.9544 0.953 0.9508 0.9483 0.9446 0.9412 0.9355 0.9319 
0.9317 0.9337 0.9388 0.9419 0.9455 0.9481 0.9506 0.9525 0.954 0.9551 0.9557 0.9558 0.9554 0.9544 0.953 0.9508 0.9483 0.9446 0.9412 0.9355 0.9319 
0.9317 0.9337 0.9388 0.9419 0.9455 0.9481 0.9506 0.9525 0.954 0.9551 0.9557 0.9558 0.9554 0.9544 0.953 0.9508 0.9483 0.9446 0.9412 0.9355 0.9319 
0.9317 0.9337 0.9388 0.9419 0.9455 0.9481 0.9506 0.9525 0.954 0.9551 0.9557 0.9558 0.9554 0.9544 0.953 0.9508 0.9483 0.9446 0.9412 0.9355 0.9319 
0.9317 0.9337 0.9388 0.9419 0.9455 0.9481 0.9506 0.9525 0.954 0.9551 0.9557 0.9558 0.9554 0.9544 0.953 0.9508 0.9483 0.9446 0.9412 0.9355 0.9319 
0.9317 0.9337 0.9388 0.9419 0.9455 0.9481 0.9506 0.9525 0.954 0.9551 0.9557 0.9558 0.9554 0.9544 0.953 0.9508 0.9483 0.9446 0.9412 0.9355 0.9319 
0.9317 0.9337 0.9388 0.9419 0.9455 0.9481 0.9506 0.9525 0.954 0.9551 0.9557 0.9558 0.9554 0.9544 0.953 0.9508 0.9483 0.9446 0.9412 0.9355 0.9319 
0.9317 0.9337 0.9388 0.9419 0.9455 0.9481 0.9506 0.9525 0.954 0.9551 0.9557 0.9558 0.9554 0.9544 0.953 0.9508 0.9483 0.9446 0.9412 0.9355 0.9319 
0.9317 0.9337 0.9388 0.9419 0.9455 0.9481 0.9506 0.9525 0.954 0.9551 0.9557 0.9558 0.9554 0.9544 0.953 0.9508 0.9483 0.9446 0.9412 0.9355 0.9319 
0.9317 0.9337 0.9388 0.9419 0.9455 0.9481 0.9506 0.9525 0.954 0.9551 0.9557 0.9558 0.9554 0.9544 0.953 0.9508 0.9483 0.9446 0.9412 0.9355 0.9319 
0.9317 0.9337 0.9388 0.9419 0.9455 0.9481 0.9506 0.9525 0.954 0.9551 0.9557 0.9558 0.9554 0.9544 0.953 0.9508 0.9483 0.9446 0.9412 0.9355 0.9319 
0.9317 0.9337 0.9388 0.9419 0.9455 0.9481 0.9506 0.9525 0.954 0.9551 0.9557 0.9558 0.9554 0.9544 0.953 0.9508 0.9483 0.9446 0.9412 0.9355 0.9319 
0.9317 0.9337 0.9388 0.9419 0.9455 0.9481 0.9506 0.9525 0.954 0.9551 0.9557 0.9558 0.9554 0.9544 0.953 0.9508 0.9483 0.9446 0.9412 0.9355 0.9319 
0.9317 0.9337 0.9388 0.9419 0.9455 0.9481 0.9506 0.9525 0.954 0.9551 0.9557 0.9558 0.9554 0.9544 0.953 0.9508 0.9483 0.9446 0.9412 0.9355 0.9319 
0.9317 0.9337 0.9388 0.9419 0.9455 0.9481 0.9506 0.9525 0.954 0.9551 0.9557 0.9558 0.9554 0.9544 0.953 0.9508 0.9483 0.9446 0.9412 0.9355 0.9319 
0.9317 0.9337 0.9388 0.9419 0.9455 0.9481 0.9506 0.9525 0.954 0.9551 0.9557 0.9558 0.9554 0.9544 0.953 0.9508 0.9483 0.9446 0.9412 0.9355 0.9319 
0.9317 0.9337 0.9388 0.9419 0.9455 0.9481 0.9506 0.9525 0.954 0.9551 0.9557 0.9558 0.9554 0.9544 0.953 0.9508 0.9483 0.9446 0.9412 0.9355 0.9319 
0.9317 0.9337 0.9388 0.9419 0.9455 0.9481 0.9506 0.9525 0.954 0.9551 0.9557 0.9558 0.9554 0.9544 0.953 0.9508 0.9483 0.9446 0.9412 0.9355 0.9319 
0.9317 0.9337 0.9388 0.9419 0.9455 0.9481 0.9506 0.9525 0.954 0.9551 0.9557 0.9558 0.9554 0.9544 0.953 0.9508 0.9483 0.9446 0.9412 0.9355 0.9319 
0.9317 0.9337 0.9388 0.9419 0.9455 0.9481 0.9506 0.9525 0.954 0.9551 0.9557 0.9558 0.9554 0.9544 0.953 0.9508 0.9483 0.9446 0.9412 0.9355 0.9319 
0.9317 0.9337 0.9388 0.9419 0.9455 0.9481 0.9506 0.9525 0.954 0.9551 0.9557 0.9558 0.9554 0.9544 0.953 0.9508 0.9483 0.9446 0.9412 0.9355 0.9319 
0.9317 0.9337 0.9388 0.9419 0.9455 0.9481 0.9506 0.9525 0.954 0.9551 0.9557 0.9558 0.9554 0.9544 0.953 0.9508 0.9483 0.9446 0.9412 0.9355 0.9319 
0.9317 0.9337 0.9388 0.9419 0.9455 0.9481 0.9506 0.9525 0.954 0.9551 0.9557 0.9558 0.9554 0.9544 0.953 0.9508 0.9483 0.9446 0.9412 0.9355 0.9319 
0.9317 0.9337 0.9388 0.9419 0.9455 0.9481 0.9506 0.9525 0.954 0.9551 0.9557 0.9558 0.9554 0.9544 0.953 0.9508 0.9483 0.9446 0.9412 0.9355 0.9319 
0.9317 0.9337 0.9388 0.9419 0.9455 0.9481 0.9506 0.9525 0.954 0.9551 0.9557 0.9558 0.9554 0.9544 0.953 0.9508 0.9483 0.9446 0.9412 0.9355 0.9319 
0.9317 0.9337 0.9388 0.9419 0.9455 0.9481 0.9506 0.9525 0.954 0.9551 0.9557 0.9558 0.9554 0.9544 0.953 0.9508 0.9483 0.9446 0.9412 0.9355 0.9319 
0.9317 0.9337 0.9388 0.9419 0.9455 0.9481 0.9506 0.9525 0.954 0.9551 0.9557 0.9558 0.9554 0.9544 0.953 0.9508 0.9483 0.9446 0.9412 0.9355 0.9319 
0.9317 0.9337 0.9388 0.9419 0.9455 0.9481 0.9506 0.9525 0.954 0.9551 0.9557 0.9558 0.9554 0.9544 0.953 0.9508 0.9483 0.9446 0.9412 0.9355 0.9319 
0.9317 0.9337 0.9388 0.9419 0.9455 0.9481 0.9506 0.9525 0.954 0.9551 0.9557 0.9558 0.9554 0.9544 0.953 0.9508 0.9483 0.9446 0.9412 0.9355 0.9319 
0.9317 0.9337 0.9388 0.9419 0.9455 0.9481 0.9506 0.9525 0.954 0.9551 0.9557 0.9558 0.9554 0.9544 0.953 0.9508 0.9483 0.9446 0.9412 0.9355 0.9319 
0.9317 0.9337 0.9388 0.9419 0.9455 0.9481 0.9506 0.9525 0.954 0.9551 0.9557 0.9558 0.9554 0.9544 0.953 0.9508 0.9483 0.9446 0.9412 0.9355 0.9319 
0.9317 0.9337 0.9388 0.9419 0.9455 0.9481 0.9506 0.9525 0.954 0.9551 0.9557 0.9558 0.9554 0.9544 0.953 0.9508 0.9483 0.9446 0.9412 0.9355 0.9319 
0.9317 0.9337 0.9388 0.9419 0.9455 0.9481 0.9506 0.9525 0.954 0.9551 0.9557 0.9558 0.9554 0.9544 0.953 0.9508 0.9483 0.9446 0.9412 0.9355 0.9319 
0.9317 0.9337 0.9388 0.9419 0.9455 0.9481 0.9506 0.9525 0.954 0.9551 0.9557 0.9558 0.9554 0.9544 0.953 0.9508 0.9483 0.9446 0.9412 0.9355 0.9319 
0.9317 0.9337 0.9388 0.9419 0.9455 0.9481 0.9506 0.9525 0.954 0.9551 0.9557 0.9558 0.9554 0.9544 0.953 0.9508 0.9483 0.9446 0.9412 0.9355 0.9319 
0.9317 0.9337 0.9388 0.9419 0.9455 0.9481 0.9506 0.9525 0.954 0.9551 0.9557 0.9558 0.9554 0.9544 0.953 0.9508 0.9483 0.9446 0.9412 0.9355 0.9319 
0.9317 0.9337 0.9388 0.9419 0.9455 0.9481 0.9506 0.9525 0.954 0.9551 0.9557 0.9558 0.9554 0.9544 0.953 0.9508 0.9483 0.9446 0.9412 0.9355 0.9319 
</DataArray>
</PointData>
</Piece>
</ImageData>
</VTKFile>
