<VTKFile type="ImageData">
<ImageData Origin="0 -10 0" Spacing="0.5 0.5 1" WholeExtent="0 20 0 40 0 0">
<Piece Extent="0 20 0 40 0 0">
<PointData>
<DataArray Name="f" NumberOfComponents="1" format="ascii" type="Float64">
0.1801 0.1789 0.1782 0.1776 0.1771 0.1766 0.1763 0.176 0.1757 0.1756 0.1755 0.1755 0.1756 0.1758 0.1761 0.1764 0.1768 0.1774 0.178 0.1784 0.1801 
0.1978 0.1972 0.1968 0.1965 0.1962 0.1959 0.1957 0.1955 0.1954 0.1953 0.1953 0.1953 0.1953 0.1954 0.1956 0.1958 0.1961 0.1963 0.1968 0.1969 0.1978 
0.2036 0.2037 0.2038 0.2038 0.2038 0.2038 0.2038 0.2038 0.2038 0.2038 0.2038 0.2038 0.2038 0.2038 0.2038 0.2038 0.2038 0.2038 0.2038 0.2038 0.2036 
0.1963 0.1972 0.1977 0.1981 0.1984 0.1987 0.1989 0.1992 0.1992 0.1994 0.1993 0.1995 0.1992 0.1994 0.199 0.1991 0.1984 0.1985 0.1976 0.1976 0.1963 
0.1769 0.1786 0.1795 0.1803 0.181 0.1816 0.1819 0.1824 0.1825 0.1829 0.1827 0.183 0.1825 0.1828 0.1819 0.1822 0.1808 0.1811 0.1792 0.1793 0.1769 
0.149 0.1511 0.1524 0.1535 0.1544 0.1552 0.1558 0.1563 0.1566 0.1569 0.1569 0.157 0.1566 0.1566 0.1558 0.1557 0.1544 0.1542 0.1521 0.152 0.149 
0.1171 0.1192 0.1207 0.122 0.1231 0.124 0.1248 0.1253 0.1257 0.126 0.126 0.126 0.1258 0.1255 0.1248 0.1244 0.1232 0.1227 0.1206 0.1202 0.1171 
0.08564 0.08761 0.08912 0.09044 0.09158 0.09254 0.09332 0.09392 0.09434 0.09461 0.0947 0.09465 0.09439 0.09405 0.09342 0.09284 0.09174 0.091 0.08922 0.08851 0.08564 
0.0582 0.05977 0.06113 0.06235 0.06341 0.06433 0.06509 0.06568 0.06611 0.06638 0.06648 0.06643 0.06621 0.06586 0.0653 0.06468 0.06374 0.06292 0.06144 0.06063 0.0582 
0.03667 0.03776 0.03886 0.03986 0.04076 0.04156 0.04223 0.04278 0.04319 0.04346 0.04358 0.04356 0.04339 0.04308 0.04262 0.04206 0.04129 0.04052 0.03936 0.03858 0.03667 
0.02138 0.02203 0.02282 0.02356 0.02424 0.02486 0.02541 0.02587 0.02623 0.02649 0.02663 0.02665 0.02655 0.02633 0.02598 0.02553 0.02494 0.02431 0.02345 0.02277 0.02138 
0.01152 0.01184 0.01235 0.01283 0.01329 0.01372 0.01412 0.01447 0.01476 0.01498 0.01513 0.01519 0.01515 0.01502 0.0148 0.01448 0.01406 0.01359 0.01299 0.01246 0.01152 
0.005737 0.005849 0.006139 0.006422 0.006698 0.006963 0.007215 0.007447 0.007654 0.007827 0.007957 0.008033 0.008048 0.007994 0.007868 0.007672 0.007407 0.007089 0.006698 0.00633 0.005737 
0.002638 0.002649 0.002799 0.002947 0.003093 0.003237 0.003377 0.003513 0.00364 0.003755 0.003851 0.003922 0.003959 0.003954 0.003903 0.003801 0.003651 0.003458 0.003222 0.002986 0.002638 
0.001121 0.001098 0.001167 0.001236 0.001306 0.001375 0.001444 0.001513 0.00158 0.001644 0.001704 0.001754 0.00179 0.001807 0.001798 0.001758 0.001686 0.001583 0.001452 0.001312 0.001121 
0.0004415 0.0004151 0.0004442 0.0004735 0.0005029 0.0005326 0.0005626 0.0005929 0.0006234 0.0006541 0.0006842 0.0007126 0.0007372 0.0007551 0.0007623 0.0007544 0.0007279 0.0006812 0.0006157 0.0005402 0.0004415 
0.0001621 0.0001429 0.0001539 0.000165 0.0001763 0.0001877 0.0001993 0.0002112 0.0002233 0.0002357 0.0002484 0.0002613 0.0002738 0.0002851 0.0002935 0.0002966 0.0002915 0.0002755 0.0002474 0.0002103 0.0001621 
5.602e-05 4.469e-05 4.837e-05 5.217e-05 5.606e-05 6.002e-05 6.406e-05 6.82e-05 7.246e-05 7.687e-05 8.145e-05 8.624e-05 9.121e-05 9.625e-05 0.000101 0.0001048 0.0001062 0.0001034 9.425e-05 7.844e-05 5.602e-05 
1.845e-05 1.279e-05 1.38e-05 1.493e-05 1.612e-05 1.735e-05 1.862e-05 1.992e-05 2.126e-05 2.265e-05 2.41e-05 2.563e-05 2.726e-05 2.898e-05 3.081e-05 3.264e-05 3.423e-05 3.492e-05 3.347e-05 2.832e-05 1.845e-05 
5.812e-06 3.453e-06 3.613e-06 3.88e-06 4.192e-06 4.527e-06 4.878e-06 5.242e-06 5.62e-06 6.013e-06 6.424e-06 6.857e-06 7.318e-06 7.812e-06 8.348e-06 8.932e-06 9.561e-06 1.018e-05 1.052e-05 9.765e-06 5.812e-06 
1.712e-06 9.566e-07 9.118e-07 9.427e-07 1.004e-06 1.079e-06 1.162e-06 1.251e-06 1.345e-06 1.443e-06 1.546e-06 1.655e-06 1.771e-06 1.895e-06 2.03e-06 2.178e-06 2.341e-06 2.525e-06 2.733e-06 2.974e-06 1.712e-06 
4.778e-07 3.207e-07 2.801e-07 2.729e-07 2.789e-07 2.905e-07 3.05e-07 3.212e-07 3.387e-07 3.574e-07 3.774e-07 3.987e-07 4.217e-07 4.467e-07 4.741e-07 5.045e-07 5.385e-07 5.77e-07 6.211e-07 6.721e-07 4.778e-07 
2.148e-07 2.357e-07 2.545e-07 2.686e-07 2.772e-07 2.812e-07 2.813e-07 2.786e-07 2.739e-07 2.679e-07 2.613e-07 2.543e-07 2.474e-07 2.408e-07 2.348e-07 2.295e-07 2.251e-07 2.218e-07 2.199e-07 2.196e-07 2.148e-07 
4.512e-07 6.091e-07 7.09e-07 7.783e-07 8.202e-07 8.401e-07 8.427e-07 8.32e-07 8.113e-07 7.834e-07 7.503e-07 7.138e-07 6.751e-07 6.35e-07 5.944e-07 5.537e-07 5.132e-07 4.733e-07 4.342e-07 3.96e-07 4.512e-07 
1.523e-06 1.991e-06 2.29e-06 2.515e-06 2.663e-06 2.747e-06 2.778e-06 2.765e-06 2.719e-06 2.646e-06 2.554e-06 2.446e-06 2.328e-06 2.203e-06 2.072e-06 1.939e-06 1.803e-06 1.668e-06 1.532e-06 1.397e-06 1.523e-06 
5.029e-06 6.308e-06 7.119e-06 7.772e-06 8.226e-06 8.513e-06 8.653e-06 8.671e-06 8.588e-06 8.422e-06 8.19e-06 7.907e-06 7.584e-06 7.231e-06 6.856e-06 6.463e-06 6.059e-06 5.647e-06 5.23e-06 4.811e-06 5.029e-06 
1.564e-05 1.895e-05 2.098e-05 2.273e-05 2.399e-05 2.484e-05 2.533e-05 2.549e-05 2.538e-05 2.505e-05 2.452e-05 2.383e-05 2.302e-05 2.21e-05 2.111e-05 2.005e-05 1.894e-05 1.779e-05 1.661e-05 1.541e-05 1.564e-05 
4.561e-05 5.374e-05 5.847e-05 6.285e-05 6.602e-05 6.831e-05 6.972e-05 7.037e-05 7.034e-05 6.974e-05 6.863e-05 6.709e-05 6.52e-05 6.301e-05 6.056e-05 5.791e-05 5.509e-05 5.213e-05 4.905e-05 4.588e-05 4.561e-05 
0.0001247 0.0001436 0.0001538 0.0001641 0.0001714 0.0001771 0.0001807 0.0001827 0.0001831 0.0001821 0.00018 0.0001768 0.0001727 0.0001678 0.0001622 0.0001561 0.0001494 0.0001424 0.0001349 0.0001272 0.0001247 
0.0003194 0.000361 0.0003814 0.0004043 0.0004199 0.0004327 0.0004411 0.0004461 0.0004478 0.0004466 0.0004427 0.0004365 0.0004282 0.000418 0.0004063 0.000393 0.0003785 0.0003629 0.0003462 0.0003287 0.0003194 
0.0007669 0.0008532 0.0008908 0.000939 0.0009695 0.0009969 0.001014 0.001026 0.00103 0.001029 0.001023 0.001011 0.0009956 0.0009759 0.0009526 0.0009261 0.0008967 0.0008645 0.0008299 0.000793 0.0007669 
0.001726 0.001896 0.001958 0.002055 0.002109 0.002165 0.002197 0.002222 0.002231 0.002231 0.00222 0.002201 0.002173 0.002137 0.002094 0.002044 0.001989 0.001927 0.001861 0.001789 0.001726 
0.003644 0.003958 0.004051 0.004238 0.004321 0.004429 0.004479 0.00453 0.004544 0.004551 0.00453 0.004501 0.004451 0.004393 0.004316 0.004232 0.004134 0.004026 0.003907 0.003778 0.003644 
0.007222 0.007767 0.007884 0.008227 0.008328 0.008535 0.008589 0.008699 0.0087 0.008734 0.008685 0.008657 0.008565 0.008484 0.008354 0.008227 0.008062 0.007892 0.007692 0.007479 0.007222 
0.01344 0.01432 0.01442 0.01502 0.01509 0.01549 0.01548 0.01573 0.01566 0.01578 0.01565 0.01566 0.01549 0.01541 0.0152 0.01503 0.01478 0.01453 0.01422 0.01389 0.01344 
0.02345 0.02476 0.02478 0.02578 0.02568 0.02642 0.02624 0.02673 0.02652 0.02679 0.02657 0.02666 0.02641 0.02634 0.02606 0.02585 0.02549 0.02514 0.02469 0.02421 0.02345 
0.03835 0.04017 0.04002 0.04144 0.0412 0.04221 0.04198 0.04262 0.04244 0.04279 0.04262 0.04273 0.04252 0.04241 0.0421 0.04179 0.04133 0.04082 0.0402 0.03951 0.03835 
0.05875 0.06091 0.06083 0.06231 0.06236 0.06332 0.0635 0.06406 0.06426 0.06454 0.06461 0.06463 0.06449 0.06425 0.06387 0.06338 0.06277 0.06205 0.06122 0.06029 0.05875 
0.08426 0.08678 0.0869 0.08854 0.08911 0.09012 0.09079 0.09137 0.09176 0.09198 0.09201 0.09188 0.09158 0.09113 0.09055 0.08985 0.08904 0.08813 0.08712 0.08602 0.08426 
0.1139 0.1172 0.1178 0.1195 0.1207 0.1215 0.1222 0.1225 0.1225 0.1224 0.1221 0.1217 0.1211 0.1205 0.1198 0.119 0.1181 0.1173 0.1163 0.1154 0.1139 
0.1467 0.1504 0.1514 0.1519 0.1523 0.1523 0.1522 0.1519 0.1515 0.1511 0.1507 0.1502 0.1498 0.1493 0.1489 0.1485 0.1482 0.1478 0.1475 0.1471 0.1467 
</DataArray>
<DataArray Name="E" NumberOfComponents="1" format="ascii" type="Float64">
1.852 1.828 1.782 1.739 1.699 1.663 1.628 1.594 1.562 1.531 1.5 1.469 1.438 1.406 1.373 1.338 1.3 1.261 1.218 1.172 1.147 
1.852 1.828 1.782 1.739 1.699 1.663 1.628 1.594 1.562 1.531 1.5 1.469 1.438 1.406 1.373 1.338 1.3 1.261 1.218 1.172 1.147 
1.852 1.828 1.782 1.739 1.699 1.663 1.628 1.594 1.562 1.531 1.5 1.469 1.438 1.406 1.373 1.338 1.3 1.261 1.218 1.172 1.147 
1.852 1.828 1.782 1.739 1.699 1.663 1.628 1.594 1.562 1.531 1.5 1.469 1.438 1.406 1.373 1.338 1.3 1.261 1.218 1.172 1.147 
1.852 1.828 1.782 1.739 1.699 1.663 1.628 1.594 1.562 1.531 1.5 1.469 1.438 1.406 1.373 1.338 1.3 1.261 1.218 1.172 1.147 
1.852 1.828 1.782 1.739 1.699 1.663 1.628 1.594 1.562 1.531 1.5 1.469 1.438 1.406 1.373 1.338 1.3 1.261 1.218 1.172 1.147 
1.852 1.828 1.782 1.739 1.699 1.663 1.628 1.594 1.562 1.531 1.5 1.469 1.438 1.406 1.373 1.338 1.3 1.261 1.218 1.172 1.147 
1.852 1.828 1.782 1.739 1.699 1.663 1.628 1.594 1.562 1.531 1.5 1.469 1.438 1.406 1.373 1.338 1.3 1.261 1.218 1.172 1.147 
1.852 1.828 1.782 1.739 1.699 1.663 1.628 1.594 1.562 1.531 1.5 1.469 1.438 1.406 1.373 1.338 1.3 1.261 1.218 1.172 1.147 
1.852 1.828 1.782 1.739 1.699 1.663 1.628 1.594 1.562 1.531 1.5 1.469 1.438 1.406 1.373 1.338 1.3 1.261 1.218 1.172 1.147 
1.852 1.828 1.782 1.739 1.699 1.663 1.628 1.594 1.562 1.531 1.5 1.469 1.438 1.406 1.373 1.338 1.3 1.261 1.218 1.172 1.147 
1.852 1.828 1.782 1.739 1.699 1.663 1.628 1.594 1.562 1.531 1.5 1.469 1.438 1.406 1.373 1.338 1.3 1.261 1.218 1.172 1.147 
1.852 1.828 1.782 1.739 1.699 1.663 1.628 1.594 1.562 1.531 1.5 1.469 1.438 1.406 1.373 1.338 1.3 1.261 1.218 1.172 1.147 
1.852 1.828 1.782 1.739 1.699 1.663 1.628 1.594 1.562 1.531 1.5 1.469 1.438 1.406 1.373 1.338 1.3 1.261 1.218 1.172 1.147 
1.852 1.828 1.782 1.739 1.699 1.663 1.628 1.594 1.562 1.531 1.5 1.469 1.438 1.406 1.373 1.338 1.3 1.261 1.218 1.172 1.147 
1.852 1.828 1.782 1.739 1.699 1.663 1.628 1.594 1.562 1.531 1.5 1.469 1.438 1.406 1.373 1.338 1.3 1.261 1.218 1.172 1.147 
1.852 1.828 1.782 1.739 1.699 1.663 1.628 1.594 1.562 1.531 1.5 1.469 1.438 1.406 1.373 1.338 1.3 1.261 1.218 1.172 1.147 
1.852 1.828 1.782 1.739 1.699 1.663 1.628 1.594 1.562 1.531 1.5 1.469 1.438 1.406 1.373 1.338 1.3 1.261 1.218 1.172 1.147 
1.852 1.828 1.782 1.739 1.699 1.663 1.628 1.594 1.562 1.531 1.5 1.469 1.438 1.406 1.373 1.338 1.3 1.261 1.218 1.172 1.147 
1.852 1.828 1.782 1.739 1.699 1.663 1.628 1.594 1.562 1.531 1.5 1.469 1.438 1.406 1.373 1.338 1.3 1.261 1.218 1.172 1.147 
1.852 1.828 1.782 1.739 1.699 1.663 1.628 1.594 1.562 1.531 1.5 1.469 1.438 1.406 1.373 1.338 1.3 1.261 1.218 1.172 1.147 
1.852 1.828 1.782 1.739 1.699 1.663 1.628 1.594 1.562 1.531 1.5 1.469 1.438 1.406 1.373 1.338 1.3 1.261 1.218 1.172 1.147 
1.852 1.828 1.782 1.739 1.699 1.663 1.628 1.594 1.562 1.531 1.5 1.469 1.438 1.406 1.373 1.338 1.3 1.261 1.218 1.172 1.147 
1.852 1.828 1.782 1.739 1.699 1.663 1.628 1.594 1.562 1.531 1.5 1.469 1.438 1.406 1.373 1.338 1.3 1.261 1.218 1.172 1.147 
1.852 1.828 1.782 1.739 1.699 1.663 1.628 1.594 1.562 1.531 1.5 1.469 1.438 1.406 1.373 1.338 1.3 1.261 1.218 1.172 1.147 
1.852 1.828 1.782 1.739 1.699 1.663 1.628 1.594 1.562 1.531 1.5 1.469 1.438 1.406 1.373 1.338 1.3 1.261 1.218 1.172 1.147 
1.852 1.828 1.782 1.739 1.699 1.663 1.628 1.594 1.562 1.531 1.5 1.469 1.438 1.406 1.373 1.338 1.3 1.261 1.218 1.172 1.147 
1.852 1.828 1.782 1.739 1.699 1.663 1.628 1.594 1.562 1.531 1.5 1.469 1.438 1.406 1.373 1.338 1.3 1.261 1.218 1.172 1.147 
1.852 1.828 1.782 1.739 1.699 1.663 1.628 1.594 1.562 1.531 1.5 1.469 1.438 1.406 1.373 1.338 1.3 1.261 1.218 1.172 1.147 
1.852 1.828 1.782 1.739 1.699 1.663 1.628 1.594 1.562 1.531 1.5 1.469 1.438 1.406 1.373 1.338 1.3 1.261 1.218 1.172 1.147 
1.852 1.828 1.782 1.739 1.699 1.663 1.628 1.594 1.562 1.531 1.5 1.469 1.438 1.406 1.373 1.338 1.3 1.261 1.218 1.172 1.147 
1.852 1.828 1.782 1.739 1.699 1.663 1.628 1.594 1.562 1.531 1.5 1.469 1.438 1.406 1.373 1.338 1.3 1.261 1.218 1.172 1.147 
1.852 1.828 1.782 1.739 1.699 1.663 1.628 1.594 1.562 1.531 1.5 1.469 1.438 1.406 1.373 1.338 1.3 1.261 1.218 1.172 1.147 
1.852 1.828 1.782 1.739 1.699 1.663 1.628 1.594 1.562 1.531 1.5 1.469 1.438 1.406 1.373 1.338 1.3 1.261 1.218 1.172 1.147 
1.852 1.828 1.782 1.739 1.699 1.663 1.628 1.594 1.562 1.531 1.5 1.469 1.438 1.406 1.373 1.338 1.3 1.261 1.218 1.172 1.147 
1.852 1.828 1.782 1.739 1.699 1.663 1.628 1.594 1.562 1.531 1.5 1.469 1.438 1.406 1.373 1.338 1.3 1.261 1.218 1.172 1.147 
1.852 1.828 1.782 1.739 1.699 1.663 1.628 1.594 1.562 1.531 1.5 1.469 1.438 1.406 1.373 1.338 1.3 1.261 1.218 1.172 1.147 
1.852 1.828 1.782 1.739 1.699 1.663 1.628 1.594 1.562 1.531 1.5 1.469 1.438 1.406 1.373 1.338 1.3 1.261 1.218 1.172 1.147 
1.852 1.828 1.782 1.739 1.699 1.663 1.628 1.594 1.562 1.531 1.5 1.469 1.438 1.406 1.373 1.338 1.3 1.261 1.218 1.172 1.147 
1.852 1.828 1.782 1.739 1.699 1.663 1.628 1.594 1.562 1.531 1.5 1.469 1.438 1.406 1.373 1.338 1.3 1.261 1.218 1.172 1.147 
1.852 1.828 1.782 1.739 1.699 1.663 1.628 1.594 1.562 1.531 1.5 1.469 1.438 1.406 1.373 1.338 1.3 1.261 1.218 1.172 1.147 
</DataArray>
<DataArray Name="ne" NumberOfComponents="1" format="ascii" type="Float64">
0.8988 0.9029 0.9126 0.9175 0.9242 0.928 0.9324 0.9347 0.9372 0.9379 0.9388 0.9378 0.9371 0.9343 0.9322 0.9274 0.9239 0.9168 0.9123 0.9024 0.8979 
0.8988 0.9029 0.9126 0.9175 0.9242 0.928 0.9324 0.9347 0.9372 0.9379 0.9388 0.9378 0.9371 0.9343 0.9322 0.9274 0.9239 0.9168 0.9123 0.9024 0.8979 
0.8988 0.9029 0.9126 0.9175 0.9242 0.928 0.9324 0.9347 0.9372 0.9379 0.9388 0.9378 0.9371 0.9343 0.9322 0.9274 0.9239 0.9168 0.9123 0.9024 0.8979 
0.8988 0.9029 0.9126 0.9175 0.9242 0.928 0.9324 0.9347 0.9372 0.9379 0.9388 0.9378 0.9371 0.9343 0.9322 0.9274 0.9239 0.9168 0.9123 0.9024 0.8979 
0.8988 0.9029 0.9126 0.9175 0.9242 0.928 0.9324 0.9347 0.9372 0.9379 0.9388 0.9378 0.9371 0.9343 0.9322 0.9274 0.9239 0.9168 0.9123 0.9024 0.8979 
0.8988 0.9029 0.9126 0.9175 0.9242 0.928 0.9324 0.9347 0.9372 0.9379 0.9388 0.9378 0.9371 0.9343 0.9322 0.9274 0.9239 0.9168 0.9123 0.9024 0.8979 
0.8988 0.9029 0.9126 0.9175 0.9242 0.928 0.9324 0.9347 0.9372 0.9379 0.9388 0.9378 0.9371 0.9343 0.9322 0.9274 0.9239 0.9168 0.9123 0.9024 0.8979 
0.8988 0.9029 0.9126 0.9175 0.9242 0.928 0.9324 0.9347 0.9372 0.9379 0.9388 0.9378 0.9371 0.9343 0.9322 0.9274 0.9239 0.9168 0.9123 0.9024 0.8979 
0.8988 0.9029 0.9126 0.9175 0.9242 0.928 0.9324 0.9347 0.9372 0.9379 0.9388 0.9378 0.9371 0.9343 0.9322 0.9274 0.9239 0.9168 0.9123 0.9024 0.8979 
0.8988 0.9029 0.9126 0.9175 0.9242 0.928 0.9324 0.9347 0.9372 0.9379 0.9388 0.9378 0.9371 0.9343 0.9322 0.9274 0.9239 0.9168 0.9123 0.9024 0.8979 
0.8988 0.9029 0.9126 0.9175 0.9242 0.928 0.9324 0.9347 0.9372 0.9379 0.9388 0.9378 0.9371 0.9343 0.9322 0.9274 0.9239 0.9168 0.9123 0.9024 0.8979 
0.8988 0.9029 0.9126 0.9175 0.9242 0.928 0.9324 0.9347 0.9372 0.9379 0.9388 0.9378 0.9371 0.9343 0.9322 0.9274 0.9239 0.9168 0.9123 0.9024 0.8979 
0.8988 0.9029 0.9126 0.9175 0.9242 0.928 0.9324 0.9347 0.9372 0.9379 0.9388 0.9378 0.9371 0.9343 0.9322 0.9274 0.9239 0.9168 0.9123 0.9024 0.8979 
0.8988 0.9029 0.9126 0.9175 0.9242 0.928 0.9324 0.9347 0.9372 0.9379 0.9388 0.9378 0.9371 0.9343 0.9322 0.9274 0.9239 0.9168 0.9123 0.9024 0.8979 
0.8988 0.9029 0.9126 0.9175 0.9242 0.928 0.9324 0.9347 0.9372 0.9379 0.9388 0.9378 0.9371 0.9343 0.9322 0.9274 0.9239 0.9168 0.9123 0.9024 0.8979 
0.8988 0.9029 0.9126 0.9175 0.9242 0.928 0.9324 0.9347 0.9372 0.9379 0.9388 0.9378 0.9371 0.9343 0.9322 0.9274 0.9239 0.9168 0.9123 0.9024 0.8979 
0.8988 0.9029 0.9126 0.9175 0.9242 0.928 0.9324 0.9347 0.9372 0.9379 0.9388 0.9378 0.9371 0.9343 0.9322 0.9274 0.9239 0.9168 0.9123 0.9024 0.8979 
0.8988 0.9029 0.9126 0.9175 0.9242 0.928 0.9324 0.9347 0.9372 0.9379 0.9388 0.9378 0.9371 0.9343 0.9322 0.9274 0.9239 0.9168 0.9123 0.9024 0.8979 
0.8988 0.9029 0.9126 0.9175 0.9242 0.928 0.9324 0.9347 0.9372 0.9379 0.9388 0.9378 0.9371 0.9343 0.9322 0.9274 0.9239 0.9168 0.9123 0.9024 0.8979 
0.8988 0.9029 0.9126 0.9175 0.9242 0.928 0.9324 0.9347 0.9372 0.9379 0.9388 0.9378 0.9371 0.9343 0.9322 0.9274 0.9239 0.9168 0.9123 0.9024 0.8979 
0.8988 0.9029 0.9126 0.9175 0.9242 0.928 0.9324 0.9347 0.9372 0.9379 0.9388 0.9378 0.9371 0.9343 0.9322 0.9274 0.9239 0.9168 0.9123 0.9024 0.8979 
0.8988 0.9029 0.9126 0.9175 0.9242 0.928 0.9324 0.9347 0.9372 0.9379 0.9388 0.9378 0.9371 0.9343 0.9322 0.9274 0.9239 0.9168 0.9123 0.9024 0.8979 
0.8988 0.9029 0.9126 0.9175 0.9242 0.928 0.9324 0.9347 0.9372 0.9379 0.9388 0.9378 0.9371 0.9343 0.9322 0.9274 0.9239 0.9168 0.9123 0.9024 0.8979 
0.8988 0.9029 0.9126 0.9175 0.9242 0.928 0.9324 0.9347 0.9372 0.9379 0.9388 0.9378 0.9371 0.9343 0.9322 0.9274 0.9239 0.9168 0.9123 0.9024 0.8979 
0.8988 0.9029 0.9126 0.9175 0.9242 0.928 0.9324 0.9347 0.9372 0.9379 0.9388 0.9378 0.9371 0.9343 0.9322 0.9274 0.9239 0.9168 0.9123 0.9024 0.8979 
0.8988 0.9029 0.9126 0.9175 0.9242 0.928 0.9324 0.9347 0.9372 0.9379 0.9388 0.9378 0.9371 0.9343 0.9322 0.9274 0.9239 0.9168 0.9123 0.9024 0.8979 
0.8988 0.9029 0.9126 0.9175 0.9242 0.928 0.9324 0.9347 0.9372 0.9379 0.9388 0.9378 0.9371 0.9343 0.9322 0.9274 0.9239 0.9168 0.9123 0.9024 0.8979 
0.8988 0.9029 0.9126 0.9175 0.9242 0.928 0.9324 0.9347 0.9372 0.9379 0.9388 0.9378 0.9371 0.9343 0.9322 0.9274 0.9239 0.9168 0.9123 0.9024 0.8979 
0.8988 0.9029 0.9126 0.9175 0.9242 0.928 0.9324 0.9347 0.9372 0.9379 0.9388 0.9378 0.9371 0.9343 0.9322 0.9274 0.9239 0.9168 0.9123 0.9024 0.8979 
0.8988 0.9029 0.9126 0.9175 0.9242 0.928 0.9324 0.9347 0.9372 0.9379 0.9388 0.9378 0.9371 0.9343 0.9322 0.9274 0.9239 0.9168 0.9123 0.9024 0.8979 
0.8988 0.9029 0.9126 0.9175 0.9242 0.928 0.9324 0.9347 0.9372 0.9379 0.9388 0.9378 0.9371 0.9343 0.9322 0.9274 0.9239 0.9168 0.9123 0.9024 0.8979 
0.8988 0.9029 0.9126 0.9175 0.9242 0.928 0.9324 0.9347 0.9372 0.9379 0.9388 0.9378 0.9371 0.9343 0.9322 0.9274 0.9239 0.9168 0.9123 0.9024 0.8979 
0.8988 0.9029 0.9126 0.9175 0.9242 0.928 0.9324 0.9347 0.9372 0.9379 0.9388 0.9378 0.9371 0.9343 0.9322 0.9274 0.9239 0.9168 0.9123 0.9024 0.8979 
0.8988 0.9029 0.9126 0.9175 0.9242 0.928 0.9324 0.9347 0.9372 0.9379 0.9388 0.9378 0.9371 0.9343 0.9322 0.9274 0.9239 0.9168 0.9123 0.9024 0.8979 
0.8988 0.9029 0.9126 0.9175 0.9242 0.928 0.9324 0.9347 0.9372 0.9379 0.9388 0.9378 0.9371 0.9343 0.9322 0.9274 0.9239 0.9168 0.9123 0.9024 0.8979 
0.8988 0.9029 0.9126 0.9175 0.9242 0.928 0.9324 0.9347 0.9372 0.9379 0.9388 0.9378 0.9371 0.9343 0.9322 0.9274 0.9239 0.9168 0.9123 0.9024 0.8979 
0.8988 0.9029 0.9126 0.9175 0.9242 0.928 0.9324 0.9347 0.9372 0.9379 0.9388 0.9378 0.9371 0.9343 0.9322 0.9274 0.9239 0.9168 0.9123 0.9024 0.8979 
0.8988 0.9029 0.9126 0.9175 0.9242 0.928 0.9324 0.9347 0.9372 0.9379 0.9388 0.9378 0.9371 0.9343 0.9322 0.9274 0.9239 0.9168 0.9123 0.9024 0.8979 
0.8988 0.9029 0.9126 0.9175 0.9242 0.928 0.9324 0.9347 0.9372 0.9379 0.9388 0.9378 0.9371 0.9343 0.9322 0.9274 0.9239 0.9168 0.9123 0.9024 0.8979 
0.8988 0.9029 0.9126 0.9175 0.9242 0.928 0.9324 0.9347 0.9372 0.9379 0.9388 0.9378 0.9371 0.9343 0.9322 0.9274 0.9239 0.9168 0.9123 0.9024 0.8979 
0.8988 0.9029 0.9126 0.9175 0.9242 0.928 0.9324 0.9347 0.9372 0.9379 0.9388 0.9378 0.9371 0.9343 0.9322 0.9274 0.9239 0.9168 0.9123 0.9024 0.8979 
</DataArray>
</PointData>
</Piece>
</ImageData>
</VTKFile>
