<VTKFile type="ImageData">
<ImageData Origin="0 -10 0" Spacing="0.5 0.5 1" WholeExtent="0 20 0 40 0 0">
<Piece Extent="0 20 0 40 0 0">
<PointData>
<DataArray Name="f" NumberOfComponents="1" format="ascii" type="Float64">
1.079e-11 1.782e-13 5.288e-18 1.063e-20 0 0 0 0 0 0 0 0 0 0 0 0 0 0 0 0 0 
3.923e-09 8.374e-11 3.685e-14 3.261e-16 0 0 0 0 0 0 0 0 0 0 0 0 0 0 0 0 0 
9.961e-08 4.268e-09 2.888e-11 6.413e-13 2.851e-17 1.148e-19 0 0 0 0 0 0 0 0 0 0 0 0 0 0 0 
1.514e-06 1.636e-07 9.042e-09 2.589e-10 1.709e-13 3.034e-15 3.072e-17 1.413e-19 0 0 0 0 0 0 0 0 0 0 0 0 0 
9.068e-06 1.751e-06 1.92e-07 1.111e-08 1.162e-10 5.179e-12 1.611e-13 3.271e-15 3.864e-17 2.132e-19 0 0 0 0 0 0 0 0 0 0 0 
3.014e-05 1.017e-05 2.148e-06 2.753e-07 1.768e-08 8.72e-10 5.156e-11 2.151e-12 5.942e-14 9.769e-16 7.774e-18 1.784e-20 0 0 0 0 0 0 0 0 0 
5.818e-05 3.116e-05 1.088e-05 2.426e-06 3.154e-07 2.961e-08 2.662e-09 1.691e-10 7.135e-12 1.797e-13 2.202e-15 8.018e-18 0 0 0 0 0 0 0 0 0 
7.151e-05 5.848e-05 3.197e-05 1.15e-05 2.593e-06 4.146e-07 5.431e-08 5.018e-09 3.085e-10 1.139e-11 2.081e-13 1.189e-15 3.795e-19 0 0 0 0 0 0 0 0 
5.796e-05 7.116e-05 5.926e-05 3.305e-05 1.202e-05 3.039e-06 5.729e-07 7.59e-08 6.699e-09 3.582e-10 9.672e-12 8.66e-14 5.505e-17 0 0 0 0 0 0 0 0 
3.115e-05 5.713e-05 7.161e-05 6.061e-05 3.414e-05 1.312e-05 3.556e-06 6.738e-07 8.515e-08 6.576e-09 2.624e-10 3.687e-12 4.657e-15 0 0 0 0 0 0 0 0 
1.092e-05 3.011e-05 5.674e-05 7.228e-05 6.186e-05 3.553e-05 1.395e-05 3.797e-06 6.893e-07 7.714e-08 4.566e-09 1.011e-10 2.529e-13 0 0 0 0 0 0 0 0 
2.409e-06 1.016e-05 2.909e-05 5.606e-05 7.273e-05 6.246e-05 3.598e-05 1.42e-05 3.732e-06 6.097e-07 5.392e-08 1.892e-09 9.346e-12 0 0 0 0 0 0 0 0 
3.139e-07 2.097e-06 9.351e-06 2.779e-05 5.535e-05 7.212e-05 6.212e-05 3.606e-05 1.388e-05 3.346e-06 4.469e-07 2.509e-08 2.439e-10 0 0 0 0 0 0 0 0 
2.19e-08 2.462e-07 1.784e-06 8.498e-06 2.671e-05 5.437e-05 7.184e-05 6.246e-05 3.579e-05 1.293e-05 2.645e-06 2.405e-07 4.594e-09 0 0 0 0 0 0 0 0 
6.94e-10 1.469e-08 1.849e-07 1.509e-06 7.819e-06 2.613e-05 5.475e-05 7.303e-05 6.359e-05 3.509e-05 1.121e-05 1.68e-06 6.314e-08 1.833e-20 0 0 0 0 0 0 0 
7.253e-12 3.721e-10 8.945e-09 1.412e-07 1.287e-06 7.651e-06 2.653e-05 5.59e-05 7.59e-05 6.563e-05 3.36e-05 8.506e-06 6.337e-07 7.634e-17 0 0 0 0 0 0 0 
9.629e-15 2.939e-12 1.491e-10 5.964e-09 1.042e-07 1.267e-06 7.679e-06 2.648e-05 5.789e-05 8.103e-05 6.88e-05 3.048e-05 4.594e-06 2.132e-13 1.002e-19 0 0 0 0 0 0 
1.19e-19 3.084e-15 3.409e-13 8.617e-11 3.149e-09 1.053e-07 1.191e-06 7.013e-06 2.57e-05 6.082e-05 8.983e-05 7.344e-05 2.343e-05 3.755e-10 4.492e-15 1.9e-19 0 0 0 0 0 
0 0 8.326e-18 1.858e-13 1.513e-11 3.541e-09 7.96e-08 8.462e-07 5.514e-06 2.348e-05 6.473e-05 0.0001063 7.984e-05 3.708e-07 5.618e-11 4.235e-15 4.255e-20 0 0 0 0 
0 0 0 0 1.169e-15 2.397e-11 1.168e-09 2.574e-08 3.444e-07 3.032e-06 1.783e-05 6.8e-05 0.000153 0.0001547 1.867e-07 2.954e-11 5.534e-16 0 0 0 0 
0 0 0 0 0 0 0 0 0 0 6.251e-16 5.243e-11 8.057e-07 0.003583 0.0001433 6.711e-08 2.673e-12 5.763e-18 0 0 0 
0 0 0 0 0 0 0 0 0 0 4.348e-20 4.902e-15 9.967e-11 5.712e-07 0.000157 7.397e-05 1.96e-05 3.364e-06 3.848e-07 2.893e-08 1.569e-09 
0 0 0 0 0 0 0 0 0 0 0 1.872e-19 5.009e-15 3.732e-11 7.75e-05 0.00011 6.879e-05 2.531e-05 5.999e-06 9.271e-07 1.02e-07 
0 0 0 0 0 0 0 0 0 0 0 0 8.939e-20 8.62e-16 2.287e-05 7.5e-05 9.397e-05 6.458e-05 2.758e-05 7.585e-06 1.461e-06 
0 0 0 0 0 0 0 0 0 0 0 0 0 0 4.492e-06 3.097e-05 7.138e-05 8.526e-05 6.154e-05 2.839e-05 9.05e-06 
0 0 0 0 0 0 0 0 0 0 0 0 0 0 6.193e-07 8.614e-06 3.467e-05 6.861e-05 8.014e-05 5.95e-05 3.019e-05 
0 0 0 0 0 0 0 0 0 0 0 0 0 0 6.154e-08 1.697e-06 1.152e-05 3.65e-05 6.677e-05 7.727e-05 6.04e-05 
0 0 0 0 0 0 0 0 0 0 0 0 0 0 4.458e-09 2.421e-07 2.708e-06 1.339e-05 3.74e-05 6.575e-05 7.709e-05 
0 0 0 0 0 0 0 0 0 0 0 0 0 0 2.353e-10 2.516e-08 4.558e-07 3.451e-06 1.444e-05 3.777e-05 6.5e-05 
0 0 0 0 0 0 0 0 0 0 0 0 0 0 8.954e-12 1.89e-09 5.476e-08 6.259e-07 3.864e-06 1.48e-05 3.677e-05 
0 0 0 0 0 0 0 0 0 0 0 0 0 0 2.402e-13 1.004e-10 4.615e-09 7.881e-08 7.1e-07 3.938e-06 1.394e-05 
0 0 0 0 0 0 0 0 0 0 0 0 0 0 4.381e-15 3.64e-12 2.637e-10 6.682e-09 8.722e-08 6.948e-07 3.479e-06 
0 0 0 0 0 0 0 0 0 0 0 0 0 0 5.12e-17 8.489e-14 9.658e-12 3.616e-10 6.818e-09 7.776e-08 5.497e-07 
0 0 0 0 0 0 0 0 0 0 0 0 0 0 3.484e-19 1.156e-15 2.062e-13 1.142e-11 3.117e-10 5.104e-09 5.125e-08 
0 0 0 0 0 0 0 0 0 0 0 0 0 0 0 7.721e-18 2.164e-15 1.786e-13 7.149e-12 1.706e-10 2.483e-09 
0 0 0 0 0 0 0 0 0 0 0 0 0 0 0 1.699e-20 7.562e-18 9.61e-16 5.892e-14 2.147e-12 4.809e-11 
0 0 0 0 0 0 0 0 0 0 0 0 0 0 0 0 0 2.051e-19 3.761e-17 3.21e-15 1.592e-13 
0 0 0 0 0 0 0 0 0 0 0 0 0 0 0 0 0 0 0 1.343e-19 2.958e-17 
0 0 0 0 0 0 0 0 0 0 0 0 0 0 0 0 0 0 0 0 0 
0 0 0 0 0 0 0 0 0 0 0 0 0 0 0 0 0 0 0 0 0 
0 0 0 0 0 0 0 0 0 0 0 0 0 0 0 0 0 0 0 0 0 
</DataArray>
<DataArray Name="E" NumberOfComponents="1" format="ascii" type="Float64">
6.249 5.999 5.499 4.999 4.499 3.999 3.499 2.999 2.5 2 1.5 0.9998 0.4998 0.0003386 -0.4991 -0.999 -1.499 -1.999 -2.499 -2.999 -3.249 
6.249 5.999 5.499 4.999 4.499 3.999 3.499 2.999 2.5 2 1.5 0.9998 0.4998 0.0003386 -0.4991 -0.999 -1.499 -1.999 -2.499 -2.999 -3.249 
6.249 5.999 5.499 4.999 4.499 3.999 3.499 2.999 2.5 2 1.5 0.9998 0.4998 0.0003386 -0.4991 -0.999 -1.499 -1.999 -2.499 -2.999 -3.249 
6.249 5.999 5.499 4.999 4.499 3.999 3.499 2.999 2.5 2 1.5 0.9998 0.4998 0.0003386 -0.4991 -0.999 -1.499 -1.999 -2.499 -2.999 -3.249 
6.249 5.999 5.499 4.999 4.499 3.999 3.499 2.999 2.5 2 1.5 0.9998 0.4998 0.0003386 -0.4991 -0.999 -1.499 -1.999 -2.499 -2.999 -3.249 
6.249 5.999 5.499 4.999 4.499 3.999 3.499 2.999 2.5 2 1.5 0.9998 0.4998 0.0003386 -0.4991 -0.999 -1.499 -1.999 -2.499 -2.999 -3.249 
6.249 5.999 5.499 4.999 4.499 3.999 3.499 2.999 2.5 2 1.5 0.9998 0.4998 0.0003386 -0.4991 -0.999 -1.499 -1.999 -2.499 -2.999 -3.249 
6.249 5.999 5.499 4.999 4.499 3.999 3.499 2.999 2.5 2 1.5 0.9998 0.4998 0.0003386 -0.4991 -0.999 -1.499 -1.999 -2.499 -2.999 -3.249 
6.249 5.999 5.499 4.999 4.499 3.999 3.499 2.999 2.5 2 1.5 0.9998 0.4998 0.0003386 -0.4991 -0.999 -1.499 -1.999 -2.499 -2.999 -3.249 
6.249 5.999 5.499 4.999 4.499 3.999 3.499 2.999 2.5 2 1.5 0.9998 0.4998 0.0003386 -0.4991 -0.999 -1.499 -1.999 -2.499 -2.999 -3.249 
6.249 5.999 5.499 4.999 4.499 3.999 3.499 2.999 2.5 2 1.5 0.9998 0.4998 0.0003386 -0.4991 -0.999 -1.499 -1.999 -2.499 -2.999 -3.249 
6.249 5.999 5.499 4.999 4.499 3.999 3.499 2.999 2.5 2 1.5 0.9998 0.4998 0.0003386 -0.4991 -0.999 -1.499 -1.999 -2.499 -2.999 -3.249 
6.249 5.999 5.499 4.999 4.499 3.999 3.499 2.999 2.5 2 1.5 0.9998 0.4998 0.0003386 -0.4991 -0.999 -1.499 -1.999 -2.499 -2.999 -3.249 
6.249 5.999 5.499 4.999 4.499 3.999 3.499 2.999 2.5 2 1.5 0.9998 0.4998 0.0003386 -0.4991 -0.999 -1.499 -1.999 -2.499 -2.999 -3.249 
6.249 5.999 5.499 4.999 4.499 3.999 3.499 2.999 2.5 2 1.5 0.9998 0.4998 0.0003386 -0.4991 -0.999 -1.499 -1.999 -2.499 -2.999 -3.249 
6.249 5.999 5.499 4.999 4.499 3.999 3.499 2.999 2.5 2 1.5 0.9998 0.4998 0.0003386 -0.4991 -0.999 -1.499 -1.999 -2.499 -2.999 -3.249 
6.249 5.999 5.499 4.999 4.499 3.999 3.499 2.999 2.5 2 1.5 0.9998 0.4998 0.0003386 -0.4991 -0.999 -1.499 -1.999 -2.499 -2.999 -3.249 
6.249 5.999 5.499 4.999 4.499 3.999 3.499 2.999 2.5 2 1.5 0.9998 0.4998 0.0003386 -0.4991 -0.999 -1.499 -1.999 -2.499 -2.999 -3.249 
6.249 5.999 5.499 4.999 4.499 3.999 3.499 2.999 2.5 2 1.5 0.9998 0.4998 0.0003386 -0.4991 -0.999 -1.499 -1.999 -2.499 -2.999 -3.249 
6.249 5.999 5.499 4.999 4.499 3.999 3.499 2.999 2.5 2 1.5 0.9998 0.4998 0.0003386 -0.4991 -0.999 -1.499 -1.999 -2.499 -2.999 -3.249 
6.249 5.999 5.499 4.999 4.499 3.999 3.499 2.999 2.5 2 1.5 0.9998 0.4998 0.0003386 -0.4991 -0.999 -1.499 -1.999 -2.499 -2.999 -3.249 
6.249 5.999 5.499 4.999 4.499 3.999 3.499 2.999 2.5 2 1.5 0.9998 0.4998 0.0003386 -0.4991 -0.999 -1.499 -1.999 -2.499 -2.999 -3.249 
6.249 5.999 5.499 4.999 4.499 3.999 3.499 2.999 2.5 2 1.5 0.9998 0.4998 0.0003386 -0.4991 -0.999 -1.499 -1.999 -2.499 -2.999 -3.249 
6.249 5.999 5.499 4.999 4.499 3.999 3.499 2.999 2.5 2 1.5 0.9998 0.4998 0.0003386 -0.4991 -0.999 -1.499 -1.999 -2.499 -2.999 -3.249 
6.249 5.999 5.499 4.999 4.499 3.999 3.499 2.999 2.5 2 1.5 0.9998 0.4998 0.0003386 -0.4991 -0.999 -1.499 -1.999 -2.499 -2.999 -3.249 
6.249 5.999 5.499 4.999 4.499 3.999 3.499 2.999 2.5 2 1.5 0.9998 0.4998 0.0003386 -0.4991 -0.999 -1.499 -1.999 -2.499 -2.999 -3.249 
6.249 5.999 5.499 4.999 4.499 3.999 3.499 2.999 2.5 2 1.5 0.9998 0.4998 0.0003386 -0.4991 -0.999 -1.499 -1.999 -2.499 -2.999 -3.249 
6.249 5.999 5.499 4.999 4.499 3.999 3.499 2.999 2.5 2 1.5 0.9998 0.4998 0.0003386 -0.4991 -0.999 -1.499 -1.999 -2.499 -2.999 -3.249 
6.249 5.999 5.499 4.999 4.499 3.999 3.499 2.999 2.5 2 1.5 0.9998 0.4998 0.0003386 -0.4991 -0.999 -1.499 -1.999 -2.499 -2.999 -3.249 
6.249 5.999 5.499 4.999 4.499 3.999 3.499 2.999 2.5 2 1.5 0.9998 0.4998 0.0003386 -0.4991 -0.999 -1.499 -1.999 -2.499 -2.999 -3.249 
6.249 5.999 5.499 4.999 4.499 3.999 3.499 2.999 2.5 2 1.5 0.9998 0.4998 0.0003386 -0.4991 -0.999 -1.499 -1.999 -2.499 -2.999 -3.249 
6.249 5.999 5.499 4.999 4.499 3.999 3.499 2.999 2.5 2 1.5 0.9998 0.4998 0.0003386 -0.4991 -0.999 -1.499 -1.999 -2.499 -2.999 -3.249 
6.249 5.999 5.499 4.999 4.499 3.999 3.499 2.999 2.5 2 1.5 0.9998 0.4998 0.0003386 -0.4991 -0.999 -1.499 -1.999 -2.499 -2.999 -3.249 
6.249 5.999 5.499 4.999 4.499 3.999 3.499 2.999 2.5 2 1.5 0.9998 0.4998 0.0003386 -0.4991 -0.999 -1.499 -1.999 -2.499 -2.999 -3.249 
6.249 5.999 5.499 4.999 4.499 3.999 3.499 2.999 2.5 2 1.5 0.9998 0.4998 0.0003386 -0.4991 -0.999 -1.499 -1.999 -2.499 -2.999 -3.249 
6.249 5.999 5.499 4.999 4.499 3.999 3.499 2.999 2.5 2 1.5 0.9998 0.4998 0.0003386 -0.4991 -0.999 -1.499 -1.999 -2.499 -2.999 -3.249 
6.249 5.999 5.499 4.999 4.499 3.999 3.499 2.999 2.5 2 1.5 0.9998 0.4998 0.0003386 -0.4991 -0.999 -1.499 -1.999 -2.499 -2.999 -3.249 
6.249 5.999 5.499 4.999 4.499 3.999 3.499 2.999 2.5 2 1.5 0.9998 0.4998 0.0003386 -0.4991 -0.999 -1.499 -1.999 -2.499 -2.999 -3.249 
6.249 5.999 5.499 4.999 4.499 3.999 3.499 2.999 2.5 2 1.5 0.9998 0.4998 0.0003386 -0.4991 -0.999 -1.499 -1.999 -2.499 -2.999 -3.249 
6.249 5.999 5.499 4.999 4.499 3.999 3.499 2.999 2.5 2 1.5 0.9998 0.4998 0.0003386 -0.4991 -0.999 -1.499 -1.999 -2.499 -2.999 -3.249 
6.249 5.999 5.499 4.999 4.499 3.999 3.499 2.999 2.5 2 1.5 0.9998 0.4998 0.0003386 -0.4991 -0.999 -1.499 -1.999 -2.499 -2.999 -3.249 
</DataArray>
<DataArray Name="ne" NumberOfComponents="1" format="ascii" type="Float64">
0.000145 0.0001451 0.0001456 0.000146 0.0001466 0.0001472 0.0001484 0.0001496 0.000151 0.0001526 0.0001543 0.0001541 0.0001401 0.001875 0.0002173 0.0001606 0.000162 0.0001608 0.0001596 0.0001583 0.0001587 
0.000145 0.0001451 0.0001456 0.000146 0.0001466 0.0001472 0.0001484 0.0001496 0.000151 0.0001526 0.0001543 0.0001541 0.0001401 0.001875 0.0002173 0.0001606 0.000162 0.0001608 0.0001596 0.0001583 0.0001587 
0.000145 0.0001451 0.0001456 0.000146 0.0001466 0.0001472 0.0001484 0.0001496 0.000151 0.0001526 0.0001543 0.0001541 0.0001401 0.001875 0.0002173 0.0001606 0.000162 0.0001608 0.0001596 0.0001583 0.0001587 
0.000145 0.0001451 0.0001456 0.000146 0.0001466 0.0001472 0.0001484 0.0001496 0.000151 0.0001526 0.0001543 0.0001541 0.0001401 0.001875 0.0002173 0.0001606 0.000162 0.0001608 0.0001596 0.0001583 0.0001587 
0.000145 0.0001451 0.0001456 0.000146 0.0001466 0.0001472 0.0001484 0.0001496 0.000151 0.0001526 0.0001543 0.0001541 0.0001401 0.001875 0.0002173 0.0001606 0.000162 0.0001608 0.0001596 0.0001583 0.0001587 
0.000145 0.0001451 0.0001456 0.000146 0.0001466 0.0001472 0.0001484 0.0001496 0.000151 0.0001526 0.0001543 0.0001541 0.0001401 0.001875 0.0002173 0.0001606 0.000162 0.0001608 0.0001596 0.0001583 0.0001587 
0.000145 0.0001451 0.0001456 0.000146 0.0001466 0.0001472 0.0001484 0.0001496 0.000151 0.0001526 0.0001543 0.0001541 0.0001401 0.001875 0.0002173 0.0001606 0.000162 0.0001608 0.0001596 0.0001583 0.0001587 
0.000145 0.0001451 0.0001456 0.000146 0.0001466 0.0001472 0.0001484 0.0001496 0.000151 0.0001526 0.0001543 0.0001541 0.0001401 0.001875 0.0002173 0.0001606 0.000162 0.0001608 0.0001596 0.0001583 0.0001587 
0.000145 0.0001451 0.0001456 0.000146 0.0001466 0.0001472 0.0001484 0.0001496 0.000151 0.0001526 0.0001543 0.0001541 0.0001401 0.001875 0.0002173 0.0001606 0.000162 0.0001608 0.0001596 0.0001583 0.0001587 
0.000145 0.0001451 0.0001456 0.000146 0.0001466 0.0001472 0.0001484 0.0001496 0.000151 0.0001526 0.0001543 0.0001541 0.0001401 0.001875 0.0002173 0.0001606 0.000162 0.0001608 0.0001596 0.0001583 0.0001587 
0.000145 0.0001451 0.0001456 0.000146 0.0001466 0.0001472 0.0001484 0.0001496 0.000151 0.0001526 0.0001543 0.0001541 0.0001401 0.001875 0.0002173 0.0001606 0.000162 0.0001608 0.0001596 0.0001583 0.0001587 
0.000145 0.0001451 0.0001456 0.000146 0.0001466 0.0001472 0.0001484 0.0001496 0.000151 0.0001526 0.0001543 0.0001541 0.0001401 0.001875 0.0002173 0.0001606 0.000162 0.0001608 0.0001596 0.0001583 0.0001587 
0.000145 0.0001451 0.0001456 0.000146 0.0001466 0.0001472 0.0001484 0.0001496 0.000151 0.0001526 0.0001543 0.0001541 0.0001401 0.001875 0.0002173 0.0001606 0.000162 0.0001608 0.0001596 0.0001583 0.0001587 
0.000145 0.0001451 0.0001456 0.000146 0.0001466 0.0001472 0.0001484 0.0001496 0.000151 0.0001526 0.0001543 0.0001541 0.0001401 0.001875 0.0002173 0.0001606 0.000162 0.0001608 0.0001596 0.0001583 0.0001587 
0.000145 0.0001451 0.0001456 0.000146 0.0001466 0.0001472 0.0001484 0.0001496 0.000151 0.0001526 0.0001543 0.0001541 0.0001401 0.001875 0.0002173 0.0001606 0.000162 0.0001608 0.0001596 0.0001583 0.0001587 
0.000145 0.0001451 0.0001456 0.000146 0.0001466 0.0001472 0.0001484 0.0001496 0.000151 0.0001526 0.0001543 0.0001541 0.0001401 0.001875 0.0002173 0.0001606 0.000162 0.0001608 0.0001596 0.0001583 0.0001587 
0.000145 0.0001451 0.0001456 0.000146 0.0001466 0.0001472 0.0001484 0.0001496 0.000151 0.0001526 0.0001543 0.0001541 0.0001401 0.001875 0.0002173 0.0001606 0.000162 0.0001608 0.0001596 0.0001583 0.0001587 
0.000145 0.0001451 0.0001456 0.000146 0.0001466 0.0001472 0.0001484 0.0001496 0.000151 0.0001526 0.0001543 0.0001541 0.0001401 0.001875 0.0002173 0.0001606 0.000162 0.0001608 0.0001596 0.0001583 0.0001587 
0.000145 0.0001451 0.0001456 0.000146 0.0001466 0.0001472 0.0001484 0.0001496 0.000151 0.0001526 0.0001543 0.0001541 0.0001401 0.001875 0.0002173 0.0001606 0.000162 0.0001608 0.0001596 0.0001583 0.0001587 
0.000145 0.0001451 0.0001456 0.000146 0.0001466 0.0001472 0.0001484 0.0001496 0.000151 0.0001526 0.0001543 0.0001541 0.0001401 0.001875 0.0002173 0.0001606 0.000162 0.0001608 0.0001596 0.0001583 0.0001587 
0.000145 0.0001451 0.0001456 0.000146 0.0001466 0.0001472 0.0001484 0.0001496 0.000151 0.0001526 0.0001543 0.0001541 0.0001401 0.001875 0.0002173 0.0001606 0.000162 0.0001608 0.0001596 0.0001583 0.0001587 
0.000145 0.0001451 0.0001456 0.000146 0.0001466 0.0001472 0.0001484 0.0001496 0.000151 0.0001526 0.0001543 0.0001541 0.0001401 0.001875 0.0002173 0.0001606 0.000162 0.0001608 0.0001596 0.0001583 0.0001587 
0.000145 0.0001451 0.0001456 0.000146 0.0001466 0.0001472 0.0001484 0.0001496 0.000151 0.0001526 0.0001543 0.0001541 0.0001401 0.001875 0.0002173 0.0001606 0.000162 0.0001608 0.0001596 0.0001583 0.0001587 
0.000145 0.0001451 0.0001456 0.000146 0.0001466 0.0001472 0.0001484 0.0001496 0.000151 0.0001526 0.0001543 0.0001541 0.0001401 0.001875 0.0002173 0.0001606 0.000162 0.0001608 0.0001596 0.0001583 0.0001587 
0.000145 0.0001451 0.0001456 0.000146 0.0001466 0.0001472 0.0001484 0.0001496 0.000151 0.0001526 0.0001543 0.0001541 0.0001401 0.001875 0.0002173 0.0001606 0.000162 0.0001608 0.0001596 0.0001583 0.0001587 
0.000145 0.0001451 0.0001456 0.000146 0.0001466 0.0001472 0.0001484 0.0001496 0.000151 0.0001526 0.0001543 0.0001541 0.0001401 0.001875 0.0002173 0.0001606 0.000162 0.0001608 0.0001596 0.0001583 0.0001587 
0.000145 0.0001451 0.0001456 0.000146 0.0001466 0.0001472 0.0001484 0.0001496 0.000151 0.0001526 0.0001543 0.0001541 0.0001401 0.001875 0.0002173 0.0001606 0.000162 0.0001608 0.0001596 0.0001583 0.0001587 
0.000145 0.0001451 0.0001456 0.000146 0.0001466 0.0001472 0.0001484 0.0001496 0.000151 0.0001526 0.0001543 0.0001541 0.0001401 0.001875 0.0002173 0.0001606 0.000162 0.0001608 0.0001596 0.0001583 0.0001587 
0.000145 0.0001451 0.0001456 0.000146 0.0001466 0.0001472 0.0001484 0.0001496 0.000151 0.0001526 0.0001543 0.0001541 0.0001401 0.001875 0.0002173 0.0001606 0.000162 0.0001608 0.0001596 0.0001583 0.0001587 
0.000145 0.0001451 0.0001456 0.000146 0.0001466 0.0001472 0.0001484 0.0001496 0.000151 0.0001526 0.0001543 0.0001541 0.0001401 0.001875 0.0002173 0.0001606 0.000162 0.0001608 0.0001596 0.0001583 0.0001587 
0.000145 0.0001451 0.0001456 0.000146 0.0001466 0.0001472 0.0001484 0.0001496 0.000151 0.0001526 0.0001543 0.0001541 0.0001401 0.001875 0.0002173 0.0001606 0.000162 0.0001608 0.0001596 0.0001583 0.0001587 
0.000145 0.0001451 0.0001456 0.000146 0.0001466 0.0001472 0.0001484 0.0001496 0.000151 0.0001526 0.0001543 0.0001541 0.0001401 0.001875 0.0002173 0.0001606 0.000162 0.0001608 0.0001596 0.0001583 0.0001587 
0.000145 0.0001451 0.0001456 0.000146 0.0001466 0.0001472 0.0001484 0.0001496 0.000151 0.0001526 0.0001543 0.0001541 0.0001401 0.001875 0.0002173 0.0001606 0.000162 0.0001608 0.0001596 0.0001583 0.0001587 
0.000145 0.0001451 0.0001456 0.000146 0.0001466 0.0001472 0.0001484 0.0001496 0.000151 0.0001526 0.0001543 0.0001541 0.0001401 0.001875 0.0002173 0.0001606 0.000162 0.0001608 0.0001596 0.0001583 0.0001587 
0.000145 0.0001451 0.0001456 0.000146 0.0001466 0.0001472 0.0001484 0.0001496 0.000151 0.0001526 0.0001543 0.0001541 0.0001401 0.001875 0.0002173 0.0001606 0.000162 0.0001608 0.0001596 0.0001583 0.0001587 
0.000145 0.0001451 0.0001456 0.000146 0.0001466 0.0001472 0.0001484 0.0001496 0.000151 0.0001526 0.0001543 0.0001541 0.0001401 0.001875 0.0002173 0.0001606 0.000162 0.0001608 0.0001596 0.0001583 0.0001587 
0.000145 0.0001451 0.0001456 0.000146 0.0001466 0.0001472 0.0001484 0.0001496 0.000151 0.0001526 0.0001543 0.0001541 0.0001401 0.001875 0.0002173 0.0001606 0.000162 0.0001608 0.0001596 0.0001583 0.0001587 
0.000145 0.0001451 0.0001456 0.000146 0.0001466 0.0001472 0.0001484 0.0001496 0.000151 0.0001526 0.0001543 0.0001541 0.0001401 0.001875 0.0002173 0.0001606 0.000162 0.0001608 0.0001596 0.0001583 0.0001587 
0.000145 0.0001451 0.0001456 0.000146 0.0001466 0.0001472 0.0001484 0.0001496 0.000151 0.0001526 0.0001543 0.0001541 0.0001401 0.001875 0.0002173 0.0001606 0.000162 0.0001608 0.0001596 0.0001583 0.0001587 
0.000145 0.0001451 0.0001456 0.000146 0.0001466 0.0001472 0.0001484 0.0001496 0.000151 0.0001526 0.0001543 0.0001541 0.0001401 0.001875 0.0002173 0.0001606 0.000162 0.0001608 0.0001596 0.0001583 0.0001587 
0.000145 0.0001451 0.0001456 0.000146 0.0001466 0.0001472 0.0001484 0.0001496 0.000151 0.0001526 0.0001543 0.0001541 0.0001401 0.001875 0.0002173 0.0001606 0.000162 0.0001608 0.0001596 0.0001583 0.0001587 
</DataArray>
</PointData>
</Piece>
</ImageData>
</VTKFile>
