<VTKFile type="ImageData">
<ImageData Origin="0 -10 0" Spacing="0.5 0.5 1" WholeExtent="0 20 0 40 0 0">
<Piece Extent="0 20 0 40 0 0">
<PointData>
<DataArray Name="f" NumberOfComponents="1" format="ascii" type="Float64">
0.08294 0.08388 0.0844 0.08485 0.0852 0.0855 0.08571 0.08588 0.08597 0.08602 0.086 0.08595 0.08583 0.08568 0.08546 0.08522 0.08493 0.08457 0.08416 0.08392 0.08294 
0.0608 0.06166 0.0621 0.06251 0.0628 0.06309 0.06326 0.06344 0.06349 0.06357 0.06353 0.06352 0.06339 0.06329 0.06306 0.06289 0.06256 0.06235 0.06183 0.06173 0.0608 
0.04223 0.04297 0.04328 0.04368 0.04385 0.04415 0.0442 0.04442 0.04438 0.04452 0.0444 0.04447 0.04428 0.04429 0.04401 0.04398 0.0436 0.04355 0.04301 0.043 0.04223 
0.02774 0.02836 0.02857 0.02894 0.029 0.0293 0.02925 0.02949 0.02934 0.02955 0.02932 0.02949 0.02921 0.02933 0.029 0.02909 0.02869 0.02875 0.02828 0.02831 0.02774 
0.01718 0.01766 0.01784 0.01811 0.01818 0.01839 0.01836 0.01853 0.01841 0.01856 0.01836 0.0185 0.01824 0.01836 0.01806 0.01816 0.01782 0.0179 0.01753 0.01756 0.01718 
0.01002 0.01033 0.0105 0.01066 0.01077 0.01088 0.01093 0.01099 0.01098 0.011 0.01095 0.01094 0.01084 0.01083 0.01069 0.01067 0.0105 0.01048 0.01027 0.01026 0.01002 
0.005494 0.005677 0.005796 0.0059 0.005987 0.006058 0.006111 0.00615 0.006168 0.006177 0.006162 0.006145 0.006098 0.006064 0.005989 0.005947 0.005847 0.005807 0.00568 0.005651 0.005494 
0.002846 0.002937 0.003003 0.003062 0.003113 0.003158 0.003195 0.003225 0.003246 0.003258 0.00326 0.003255 0.003238 0.003216 0.003179 0.003146 0.00309 0.003053 0.002977 0.002948 0.002846 
0.001403 0.001442 0.001472 0.001498 0.001521 0.001541 0.001559 0.001576 0.001589 0.0016 0.001607 0.00161 0.001608 0.001602 0.001588 0.001572 0.001547 0.001524 0.001485 0.001463 0.001403 
0.0006601 0.0006788 0.0006917 0.0007007 0.000707 0.0007117 0.0007158 0.0007198 0.0007239 0.0007281 0.0007321 0.0007355 0.0007376 0.0007382 0.0007363 0.0007324 0.0007246 0.0007157 0.0006998 0.0006888 0.0006601 
0.0002928 0.0003061 0.0003138 0.0003178 0.0003189 0.0003179 0.0003158 0.0003133 0.0003111 0.0003096 0.0003089 0.0003091 0.0003097 0.0003107 0.0003115 0.0003118 0.0003111 0.0003097 0.0003059 0.0003024 0.0002928 
0.000119 0.0001293 0.0001355 0.0001392 0.0001406 0.00014 0.0001377 0.0001344 0.0001307 0.000127 0.0001239 0.0001215 0.00012 0.0001193 0.0001192 0.0001195 0.00012 0.0001205 0.0001206 0.0001204 0.000119 
4.325e-05 4.958e-05 5.39e-05 5.724e-05 5.938e-05 6.023e-05 5.978e-05 5.822e-05 5.581e-05 5.29e-05 4.989e-05 4.709e-05 4.478e-05 4.307e-05 4.199e-05 4.15e-05 4.147e-05 4.175e-05 4.223e-05 4.267e-05 4.325e-05 
1.512e-05 1.807e-05 2.02e-05 2.214e-05 2.376e-05 2.492e-05 2.548e-05 2.537e-05 2.461e-05 2.327e-05 2.153e-05 1.959e-05 1.769e-05 1.603e-05 1.477e-05 1.397e-05 1.361e-05 1.363e-05 1.395e-05 1.438e-05 1.512e-05 
8.515e-06 1.028e-05 1.086e-05 1.136e-05 1.181e-05 1.217e-05 1.24e-05 1.244e-05 1.222e-05 1.17e-05 1.089e-05 9.835e-06 8.639e-06 7.448e-06 6.427e-06 5.73e-06 5.466e-06 5.668e-06 6.306e-06 7.176e-06 8.515e-06 
1.18e-05 1.547e-05 1.566e-05 1.54e-05 1.486e-05 1.416e-05 1.336e-05 1.251e-05 1.162e-05 1.067e-05 9.668e-06 8.593e-06 7.461e-06 6.328e-06 5.303e-06 4.558e-06 4.326e-06 4.843e-06 6.277e-06 8.436e-06 1.18e-05 
2.173e-05 3.207e-05 3.361e-05 3.378e-05 3.298e-05 3.148e-05 2.95e-05 2.723e-05 2.478e-05 2.225e-05 1.973e-05 1.724e-05 1.484e-05 1.255e-05 1.045e-05 8.689e-06 7.583e-06 7.68e-06 9.736e-06 1.407e-05 2.173e-05 
4.021e-05 6.506e-05 7.131e-05 7.43e-05 7.484e-05 7.35e-05 7.07e-05 6.683e-05 6.218e-05 5.7e-05 5.151e-05 4.589e-05 4.027e-05 3.478e-05 2.953e-05 2.468e-05 2.054e-05 1.79e-05 1.85e-05 2.483e-05 4.021e-05 
7.592e-05 0.0001266 0.0001439 0.0001544 0.0001599 0.0001612 0.0001591 0.0001542 0.0001472 0.0001384 0.0001284 0.0001175 0.000106 9.424e-05 8.248e-05 7.097e-05 6.003e-05 5.033e-05 4.407e-05 4.793e-05 7.592e-05 
0.0001527 0.0002422 0.0002809 0.0003071 0.0003239 0.0003329 0.0003352 0.0003318 0.0003235 0.000311 0.0002952 0.0002767 0.0002561 0.0002339 0.0002107 0.000187 0.0001632 0.00014 0.0001186 0.0001067 0.0001527 
0.0003272 0.0004645 0.0005392 0.0005931 0.0006314 0.0006565 0.0006699 0.000673 0.0006667 0.0006523 0.0006307 0.000603 0.00057 0.0005326 0.0004917 0.0004481 0.0004027 0.0003564 0.0003099 0.0002642 0.0003272 
0.0007108 0.0009009 0.001027 0.001124 0.001197 0.001249 0.001284 0.001301 0.001303 0.001291 0.001266 0.001229 0.001181 0.001124 0.001058 0.0009859 0.0009076 0.0008247 0.0007386 0.0006509 0.0007108 
0.00149 0.001752 0.001941 0.002095 0.002217 0.002311 0.002378 0.00242 0.002438 0.002434 0.002409 0.002365 0.002301 0.002221 0.002124 0.002013 0.001889 0.001754 0.001609 0.001456 0.00149 
0.002972 0.003326 0.00359 0.003815 0.004001 0.004149 0.004262 0.00434 0.004384 0.004397 0.004377 0.004328 0.00425 0.004144 0.004011 0.003853 0.00367 0.003465 0.00324 0.002995 0.002972 
0.005601 0.006072 0.006422 0.006733 0.006995 0.00721 0.00738 0.007504 0.007584 0.00762 0.007612 0.007562 0.007471 0.007338 0.007165 0.006953 0.006701 0.006411 0.006085 0.005723 0.005601 
0.009972 0.01058 0.01103 0.01144 0.01178 0.01208 0.01231 0.01249 0.01261 0.01268 0.01268 0.01264 0.01254 0.01238 0.01216 0.01189 0.01156 0.01118 0.01073 0.01023 0.009972 
0.01678 0.01756 0.0181 0.01861 0.01905 0.01942 0.01973 0.01996 0.02013 0.02023 0.02025 0.02021 0.0201 0.01992 0.01966 0.01934 0.01893 0.01844 0.01788 0.01722 0.01678 
0.02675 0.02771 0.02833 0.02895 0.02947 0.02992 0.03029 0.03058 0.03079 0.03092 0.03097 0.03093 0.03082 0.03061 0.03032 0.02994 0.02946 0.02888 0.02819 0.0274 0.02675 
0.04044 0.04158 0.04226 0.04298 0.04357 0.04408 0.0445 0.04484 0.04508 0.04523 0.0453 0.04527 0.04515 0.04493 0.04462 0.04419 0.04366 0.043 0.04222 0.04129 0.04044 
0.05804 0.05934 0.06004 0.06084 0.06146 0.06202 0.06247 0.06283 0.06309 0.06326 0.06334 0.06332 0.0632 0.06298 0.06265 0.06221 0.06165 0.06095 0.0601 0.05909 0.05804 
0.07919 0.08058 0.08123 0.08209 0.08269 0.08326 0.0837 0.08407 0.08433 0.08451 0.08459 0.08458 0.08448 0.08427 0.08396 0.08352 0.08296 0.08226 0.0814 0.08038 0.07919 
0.1027 0.1041 0.1047 0.1055 0.106 0.1066 0.107 0.1073 0.1076 0.1078 0.1078 0.1079 0.1078 0.1076 0.1073 0.1069 0.1064 0.1058 0.105 0.104 0.1027 
0.1268 0.128 0.1284 0.1292 0.1296 0.1301 0.1304 0.1307 0.1309 0.1311 0.1312 0.1312 0.1312 0.131 0.1308 0.1305 0.1301 0.1295 0.1288 0.128 0.1268 
0.1488 0.1498 0.15 0.1506 0.1509 0.1513 0.1515 0.1518 0.1519 0.1521 0.1522 0.1523 0.1522 0.1522 0.152 0.1518 0.1515 0.1511 0.1505 0.1499 0.1488 
0.1661 0.1667 0.1668 0.1672 0.1673 0.1676 0.1677 0.168 0.168 0.1683 0.1682 0.1684 0.1684 0.1684 0.1683 0.1682 0.1679 0.1677 0.1673 0.1669 0.1661 
0.1763 0.1765 0.1765 0.1767 0.1767 0.1769 0.1769 0.1771 0.1771 0.1774 0.1773 0.1775 0.1774 0.1775 0.1774 0.1774 0.1772 0.1771 0.1768 0.1767 0.1763 
0.178 0.1778 0.1778 0.1778 0.1778 0.1778 0.1779 0.1779 0.1779 0.178 0.1779 0.1779 0.1778 0.1779 0.1777 0.1778 0.1777 0.1778 0.1777 0.1779 0.178 
0.1711 0.1707 0.1707 0.1704 0.1705 0.1702 0.1702 0.17 0.1698 0.1696 0.1695 0.1694 0.1693 0.1692 0.1692 0.1693 0.1695 0.1697 0.17 0.1704 0.1711 
0.1567 0.156 0.156 0.1554 0.1552 0.1546 0.1542 0.1538 0.1535 0.1533 0.1531 0.153 0.153 0.1531 0.1534 0.1537 0.1541 0.1545 0.1551 0.1557 0.1567 
0.1364 0.1349 0.1347 0.1337 0.133 0.1325 0.132 0.1318 0.1316 0.1316 0.1317 0.1319 0.1322 0.1325 0.1329 0.1334 0.1338 0.1344 0.1349 0.1355 0.1364 
0.1111 0.1091 0.1087 0.1084 0.1081 0.1081 0.1081 0.1083 0.1085 0.1087 0.109 0.1092 0.1095 0.1097 0.1099 0.1101 0.1103 0.1105 0.1107 0.1109 0.1111 
</DataArray>
<DataArray Name="E" NumberOfComponents="1" format="ascii" type="Float64">
1.745 1.728 1.697 1.669 1.641 1.616 1.591 1.568 1.545 1.522 1.5 1.478 1.455 1.433 1.409 1.384 1.359 1.332 1.302 1.271 1.255 
1.745 1.728 1.697 1.669 1.641 1.616 1.591 1.568 1.545 1.522 1.5 1.478 1.455 1.433 1.409 1.384 1.359 1.332 1.302 1.271 1.255 
1.745 1.728 1.697 1.669 1.641 1.616 1.591 1.568 1.545 1.522 1.5 1.478 1.455 1.433 1.409 1.384 1.359 1.332 1.302 1.271 1.255 
1.745 1.728 1.697 1.669 1.641 1.616 1.591 1.568 1.545 1.522 1.5 1.478 1.455 1.433 1.409 1.384 1.359 1.332 1.302 1.271 1.255 
1.745 1.728 1.697 1.669 1.641 1.616 1.591 1.568 1.545 1.522 1.5 1.478 1.455 1.433 1.409 1.384 1.359 1.332 1.302 1.271 1.255 
1.745 1.728 1.697 1.669 1.641 1.616 1.591 1.568 1.545 1.522 1.5 1.478 1.455 1.433 1.409 1.384 1.359 1.332 1.302 1.271 1.255 
1.745 1.728 1.697 1.669 1.641 1.616 1.591 1.568 1.545 1.522 1.5 1.478 1.455 1.433 1.409 1.384 1.359 1.332 1.302 1.271 1.255 
1.745 1.728 1.697 1.669 1.641 1.616 1.591 1.568 1.545 1.522 1.5 1.478 1.455 1.433 1.409 1.384 1.359 1.332 1.302 1.271 1.255 
1.745 1.728 1.697 1.669 1.641 1.616 1.591 1.568 1.545 1.522 1.5 1.478 1.455 1.433 1.409 1.384 1.359 1.332 1.302 1.271 1.255 
1.745 1.728 1.697 1.669 1.641 1.616 1.591 1.568 1.545 1.522 1.5 1.478 1.455 1.433 1.409 1.384 1.359 1.332 1.302 1.271 1.255 
1.745 1.728 1.697 1.669 1.641 1.616 1.591 1.568 1.545 1.522 1.5 1.478 1.455 1.433 1.409 1.384 1.359 1.332 1.302 1.271 1.255 
1.745 1.728 1.697 1.669 1.641 1.616 1.591 1.568 1.545 1.522 1.5 1.478 1.455 1.433 1.409 1.384 1.359 1.332 1.302 1.271 1.255 
1.745 1.728 1.697 1.669 1.641 1.616 1.591 1.568 1.545 1.522 1.5 1.478 1.455 1.433 1.409 1.384 1.359 1.332 1.302 1.271 1.255 
1.745 1.728 1.697 1.669 1.641 1.616 1.591 1.568 1.545 1.522 1.5 1.478 1.455 1.433 1.409 1.384 1.359 1.332 1.302 1.271 1.255 
1.745 1.728 1.697 1.669 1.641 1.616 1.591 1.568 1.545 1.522 1.5 1.478 1.455 1.433 1.409 1.384 1.359 1.332 1.302 1.271 1.255 
1.745 1.728 1.697 1.669 1.641 1.616 1.591 1.568 1.545 1.522 1.5 1.478 1.455 1.433 1.409 1.384 1.359 1.332 1.302 1.271 1.255 
1.745 1.728 1.697 1.669 1.641 1.616 1.591 1.568 1.545 1.522 1.5 1.478 1.455 1.433 1.409 1.384 1.359 1.332 1.302 1.271 1.255 
1.745 1.728 1.697 1.669 1.641 1.616 1.591 1.568 1.545 1.522 1.5 1.478 1.455 1.433 1.409 1.384 1.359 1.332 1.302 1.271 1.255 
1.745 1.728 1.697 1.669 1.641 1.616 1.591 1.568 1.545 1.522 1.5 1.478 1.455 1.433 1.409 1.384 1.359 1.332 1.302 1.271 1.255 
1.745 1.728 1.697 1.669 1.641 1.616 1.591 1.568 1.545 1.522 1.5 1.478 1.455 1.433 1.409 1.384 1.359 1.332 1.302 1.271 1.255 
1.745 1.728 1.697 1.669 1.641 1.616 1.591 1.568 1.545 1.522 1.5 1.478 1.455 1.433 1.409 1.384 1.359 1.332 1.302 1.271 1.255 
1.745 1.728 1.697 1.669 1.641 1.616 1.591 1.568 1.545 1.522 1.5 1.478 1.455 1.433 1.409 1.384 1.359 1.332 1.302 1.271 1.255 
1.745 1.728 1.697 1.669 1.641 1.616 1.591 1.568 1.545 1.522 1.5 1.478 1.455 1.433 1.409 1.384 1.359 1.332 1.302 1.271 1.255 
1.745 1.728 1.697 1.669 1.641 1.616 1.591 1.568 1.545 1.522 1.5 1.478 1.455 1.433 1.409 1.384 1.359 1.332 1.302 1.271 1.255 
1.745 1.728 1.697 1.669 1.641 1.616 1.591 1.568 1.545 1.522 1.5 1.478 1.455 1.433 1.409 1.384 1.359 1.332 1.302 1.271 1.255 
1.745 1.728 1.697 1.669 1.641 1.616 1.591 1.568 1.545 1.522 1.5 1.478 1.455 1.433 1.409 1.384 1.359 1.332 1.302 1.271 1.255 
1.745 1.728 1.697 1.669 1.641 1.616 1.591 1.568 1.545 1.522 1.5 1.478 1.455 1.433 1.409 1.384 1.359 1.332 1.302 1.271 1.255 
1.745 1.728 1.697 1.669 1.641 1.616 1.591 1.568 1.545 1.522 1.5 1.478 1.455 1.433 1.409 1.384 1.359 1.332 1.302 1.271 1.255 
1.745 1.728 1.697 1.669 1.641 1.616 1.591 1.568 1.545 1.522 1.5 1.478 1.455 1.433 1.409 1.384 1.359 1.332 1.302 1.271 1.255 
1.745 1.728 1.697 1.669 1.641 1.616 1.591 1.568 1.545 1.522 1.5 1.478 1.455 1.433 1.409 1.384 1.359 1.332 1.302 1.271 1.255 
1.745 1.728 1.697 1.669 1.641 1.616 1.591 1.568 1.545 1.522 1.5 1.478 1.455 1.433 1.409 1.384 1.359 1.332 1.302 1.271 1.255 
1.745 1.728 1.697 1.669 1.641 1.616 1.591 1.568 1.545 1.522 1.5 1.478 1.455 1.433 1.409 1.384 1.359 1.332 1.302 1.271 1.255 
1.745 1.728 1.697 1.669 1.641 1.616 1.591 1.568 1.545 1.522 1.5 1.478 1.455 1.433 1.409 1.384 1.359 1.332 1.302 1.271 1.255 
1.745 1.728 1.697 1.669 1.641 1.616 1.591 1.568 1.545 1.522 1.5 1.478 1.455 1.433 1.409 1.384 1.359 1.332 1.302 1.271 1.255 
1.745 1.728 1.697 1.669 1.641 1.616 1.591 1.568 1.545 1.522 1.5 1.478 1.455 1.433 1.409 1.384 1.359 1.332 1.302 1.271 1.255 
1.745 1.728 1.697 1.669 1.641 1.616 1.591 1.568 1.545 1.522 1.5 1.478 1.455 1.433 1.409 1.384 1.359 1.332 1.302 1.271 1.255 
1.745 1.728 1.697 1.669 1.641 1.616 1.591 1.568 1.545 1.522 1.5 1.478 1.455 1.433 1.409 1.384 1.359 1.332 1.302 1.271 1.255 
1.745 1.728 1.697 1.669 1.641 1.616 1.591 1.568 1.545 1.522 1.5 1.478 1.455 1.433 1.409 1.384 1.359 1.332 1.302 1.271 1.255 
1.745 1.728 1.697 1.669 1.641 1.616 1.591 1.568 1.545 1.522 1.5 1.478 1.455 1.433 1.409 1.384 1.359 1.332 1.302 1.271 1.255 
1.745 1.728 1.697 1.669 1.641 1.616 1.591 1.568 1.545 1.522 1.5 1.478 1.455 1.433 1.409 1.384 1.359 1.332 1.302 1.271 1.255 
1.745 1.728 1.697 1.669 1.641 1.616 1.591 1.568 1.545 1.522 1.5 1.478 1.455 1.433 1.409 1.384 1.359 1.332 1.302 1.271 1.255 
</DataArray>
<DataArray Name="ne" NumberOfComponents="1" format="ascii" type="Float64">
0.9317 0.9357 0.9406 0.9439 0.9475 0.9496 0.9522 0.9533 0.955 0.9552 0.956 0.9552 0.9551 0.9534 0.9524 0.9496 0.9475 0.9435 0.9403 0.9347 0.9316 
0.9317 0.9357 0.9406 0.9439 0.9475 0.9496 0.9522 0.9533 0.955 0.9552 0.956 0.9552 0.9551 0.9534 0.9524 0.9496 0.9475 0.9435 0.9403 0.9347 0.9316 
0.9317 0.9357 0.9406 0.9439 0.9475 0.9496 0.9522 0.9533 0.955 0.9552 0.956 0.9552 0.9551 0.9534 0.9524 0.9496 0.9475 0.9435 0.9403 0.9347 0.9316 
0.9317 0.9357 0.9406 0.9439 0.9475 0.9496 0.9522 0.9533 0.955 0.9552 0.956 0.9552 0.9551 0.9534 0.9524 0.9496 0.9475 0.9435 0.9403 0.9347 0.9316 
0.9317 0.9357 0.9406 0.9439 0.9475 0.9496 0.9522 0.9533 0.955 0.9552 0.956 0.9552 0.9551 0.9534 0.9524 0.9496 0.9475 0.9435 0.9403 0.9347 0.9316 
0.9317 0.9357 0.9406 0.9439 0.9475 0.9496 0.9522 0.9533 0.955 0.9552 0.956 0.9552 0.9551 0.9534 0.9524 0.9496 0.9475 0.9435 0.9403 0.9347 0.9316 
0.9317 0.9357 0.9406 0.9439 0.9475 0.9496 0.9522 0.9533 0.955 0.9552 0.956 0.9552 0.9551 0.9534 0.9524 0.9496 0.9475 0.9435 0.9403 0.9347 0.9316 
0.9317 0.9357 0.9406 0.9439 0.9475 0.9496 0.9522 0.9533 0.955 0.9552 0.956 0.9552 0.9551 0.9534 0.9524 0.9496 0.9475 0.9435 0.9403 0.9347 0.9316 
0.9317 0.9357 0.9406 0.9439 0.9475 0.9496 0.9522 0.9533 0.955 0.9552 0.956 0.9552 0.9551 0.9534 0.9524 0.9496 0.9475 0.9435 0.9403 0.9347 0.9316 
0.9317 0.9357 0.9406 0.9439 0.9475 0.9496 0.9522 0.9533 0.955 0.9552 0.956 0.9552 0.9551 0.9534 0.9524 0.9496 0.9475 0.9435 0.9403 0.9347 0.9316 
0.9317 0.9357 0.9406 0.9439 0.9475 0.9496 0.9522 0.9533 0.955 0.9552 0.956 0.9552 0.9551 0.9534 0.9524 0.9496 0.9475 0.9435 0.9403 0.9347 0.9316 
0.9317 0.9357 0.9406 0.9439 0.9475 0.9496 0.9522 0.9533 0.955 0.9552 0.956 0.9552 0.9551 0.9534 0.9524 0.9496 0.9475 0.9435 0.9403 0.9347 0.9316 
0.9317 0.9357 0.9406 0.9439 0.9475 0.9496 0.9522 0.9533 0.955 0.9552 0.956 0.9552 0.9551 0.9534 0.9524 0.9496 0.9475 0.9435 0.9403 0.9347 0.9316 
0.9317 0.9357 0.9406 0.9439 0.9475 0.9496 0.9522 0.9533 0.955 0.9552 0.956 0.9552 0.9551 0.9534 0.9524 0.9496 0.9475 0.9435 0.9403 0.9347 0.9316 
0.9317 0.9357 0.9406 0.9439 0.9475 0.9496 0.9522 0.9533 0.955 0.9552 0.956 0.9552 0.9551 0.9534 0.9524 0.9496 0.9475 0.9435 0.9403 0.9347 0.9316 
0.9317 0.9357 0.9406 0.9439 0.9475 0.9496 0.9522 0.9533 0.955 0.9552 0.956 0.9552 0.9551 0.9534 0.9524 0.9496 0.9475 0.9435 0.9403 0.9347 0.9316 
0.9317 0.9357 0.9406 0.9439 0.9475 0.9496 0.9522 0.9533 0.955 0.9552 0.956 0.9552 0.9551 0.9534 0.9524 0.9496 0.9475 0.9435 0.9403 0.9347 0.9316 
0.9317 0.9357 0.9406 0.9439 0.9475 0.9496 0.9522 0.9533 0.955 0.9552 0.956 0.9552 0.9551 0.9534 0.9524 0.9496 0.9475 0.9435 0.9403 0.9347 0.9316 
0.9317 0.9357 0.9406 0.9439 0.9475 0.9496 0.9522 0.9533 0.955 0.9552 0.956 0.9552 0.9551 0.9534 0.9524 0.9496 0.9475 0.9435 0.9403 0.9347 0.9316 
0.9317 0.9357 0.9406 0.9439 0.9475 0.9496 0.9522 0.9533 0.955 0.9552 0.956 0.9552 0.9551 0.9534 0.9524 0.9496 0.9475 0.9435 0.9403 0.9347 0.9316 
0.9317 0.9357 0.9406 0.9439 0.9475 0.9496 0.9522 0.9533 0.955 0.9552 0.956 0.9552 0.9551 0.9534 0.9524 0.9496 0.9475 0.9435 0.9403 0.9347 0.9316 
0.9317 0.9357 0.9406 0.9439 0.9475 0.9496 0.9522 0.9533 0.955 0.9552 0.956 0.9552 0.9551 0.9534 0.9524 0.9496 0.9475 0.9435 0.9403 0.9347 0.9316 
0.9317 0.9357 0.9406 0.9439 0.9475 0.9496 0.9522 0.9533 0.955 0.9552 0.956 0.9552 0.9551 0.9534 0.9524 0.9496 0.9475 0.9435 0.9403 0.9347 0.9316 
0.9317 0.9357 0.9406 0.9439 0.9475 0.9496 0.9522 0.9533 0.955 0.9552 0.956 0.9552 0.9551 0.9534 0.9524 0.9496 0.9475 0.9435 0.9403 0.9347 0.9316 
0.9317 0.9357 0.9406 0.9439 0.9475 0.9496 0.9522 0.9533 0.955 0.9552 0.956 0.9552 0.9551 0.9534 0.9524 0.9496 0.9475 0.9435 0.9403 0.9347 0.9316 
0.9317 0.9357 0.9406 0.9439 0.9475 0.9496 0.9522 0.9533 0.955 0.9552 0.956 0.9552 0.9551 0.9534 0.9524 0.9496 0.9475 0.9435 0.9403 0.9347 0.9316 
0.9317 0.9357 0.9406 0.9439 0.9475 0.9496 0.9522 0.9533 0.955 0.9552 0.956 0.9552 0.9551 0.9534 0.9524 0.9496 0.9475 0.9435 0.9403 0.9347 0.9316 
0.9317 0.9357 0.9406 0.9439 0.9475 0.9496 0.9522 0.9533 0.955 0.9552 0.956 0.9552 0.9551 0.9534 0.9524 0.9496 0.9475 0.9435 0.9403 0.9347 0.9316 
0.9317 0.9357 0.9406 0.9439 0.9475 0.9496 0.9522 0.9533 0.955 0.9552 0.956 0.9552 0.9551 0.9534 0.9524 0.9496 0.9475 0.9435 0.9403 0.9347 0.9316 
0.9317 0.9357 0.9406 0.9439 0.9475 0.9496 0.9522 0.9533 0.955 0.9552 0.956 0.9552 0.9551 0.9534 0.9524 0.9496 0.9475 0.9435 0.9403 0.9347 0.9316 
0.9317 0.9357 0.9406 0.9439 0.9475 0.9496 0.9522 0.9533 0.955 0.9552 0.956 0.9552 0.9551 0.9534 0.9524 0.9496 0.9475 0.9435 0.9403 0.9347 0.9316 
0.9317 0.9357 0.9406 0.9439 0.9475 0.9496 0.9522 0.9533 0.955 0.9552 0.956 0.9552 0.9551 0.9534 0.9524 0.9496 0.9475 0.9435 0.9403 0.9347 0.9316 
0.9317 0.9357 0.9406 0.9439 0.9475 0.9496 0.9522 0.9533 0.955 0.9552 0.956 0.9552 0.9551 0.9534 0.9524 0.9496 0.9475 0.9435 0.9403 0.9347 0.9316 
0.9317 0.9357 0.9406 0.9439 0.9475 0.9496 0.9522 0.9533 0.955 0.9552 0.956 0.9552 0.9551 0.9534 0.9524 0.9496 0.9475 0.9435 0.9403 0.9347 0.9316 
0.9317 0.9357 0.9406 0.9439 0.9475 0.9496 0.9522 0.9533 0.955 0.9552 0.956 0.9552 0.9551 0.9534 0.9524 0.9496 0.9475 0.9435 0.9403 0.9347 0.9316 
0.9317 0.9357 0.9406 0.9439 0.9475 0.9496 0.9522 0.9533 0.955 0.9552 0.956 0.9552 0.9551 0.9534 0.9524 0.9496 0.9475 0.9435 0.9403 0.9347 0.9316 
0.9317 0.9357 0.9406 0.9439 0.9475 0.9496 0.9522 0.9533 0.955 0.9552 0.956 0.9552 0.9551 0.9534 0.9524 0.9496 0.9475 0.9435 0.9403 0.9347 0.9316 
0.9317 0.9357 0.9406 0.9439 0.9475 0.9496 0.9522 0.9533 0.955 0.9552 0.956 0.9552 0.9551 0.9534 0.9524 0.9496 0.9475 0.9435 0.9403 0.9347 0.9316 
0.9317 0.9357 0.9406 0.9439 0.9475 0.9496 0.9522 0.9533 0.955 0.9552 0.956 0.9552 0.9551 0.9534 0.9524 0.9496 0.9475 0.9435 0.9403 0.9347 0.9316 
0.9317 0.9357 0.9406 0.9439 0.9475 0.9496 0.9522 0.9533 0.955 0.9552 0.956 0.9552 0.9551 0.9534 0.9524 0.9496 0.9475 0.9435 0.9403 0.9347 0.9316 
0.9317 0.9357 0.9406 0.9439 0.9475 0.9496 0.9522 0.9533 0.955 0.9552 0.956 0.9552 0.9551 0.9534 0.9524 0.9496 0.9475 0.9435 0.9403 0.9347 0.9316 
</DataArray>
</PointData>
</Piece>
</ImageData>
</VTKFile>
