<VTKFile type="ImageData">
<ImageData Origin="0 -10 0" Spacing="0.5 0.5 1" WholeExtent="0 20 0 40 0 0">
<Piece Extent="0 20 0 40 0 0">
<PointData>
<DataArray Name="f" NumberOfComponents="1" format="ascii" type="Float64">
4.072e-12 4.072e-12 4.072e-12 4.072e-12 4.072e-12 4.072e-12 4.072e-12 4.072e-12 4.072e-12 4.072e-12 4.072e-12 4.072e-12 4.072e-12 4.072e-12 4.072e-12 4.072e-12 4.072e-12 4.072e-12 4.072e-12 4.072e-12 4.072e-12 
8.29e-11 8.29e-11 8.29e-11 8.29e-11 8.29e-11 8.29e-11 8.29e-11 8.29e-11 8.29e-11 8.29e-11 8.29e-11 8.29e-11 8.29e-11 8.29e-11 8.29e-11 8.29e-11 8.29e-11 8.29e-11 8.29e-11 8.29e-11 8.29e-11 
1.357e-09 1.357e-09 1.357e-09 1.357e-09 1.357e-09 1.357e-09 1.357e-09 1.357e-09 1.357e-09 1.357e-09 1.357e-09 1.357e-09 1.357e-09 1.357e-09 1.357e-09 1.357e-09 1.357e-09 1.357e-09 1.357e-09 1.357e-09 1.357e-09 
1.795e-08 1.795e-08 1.795e-08 1.795e-08 1.795e-08 1.795e-08 1.795e-08 1.795e-08 1.795e-08 1.795e-08 1.795e-08 1.795e-08 1.795e-08 1.795e-08 1.795e-08 1.795e-08 1.795e-08 1.795e-08 1.795e-08 1.795e-08 1.795e-08 
1.932e-07 1.932e-07 1.932e-07 1.932e-07 1.932e-07 1.932e-07 1.932e-07 1.932e-07 1.932e-07 1.932e-07 1.932e-07 1.932e-07 1.932e-07 1.932e-07 1.932e-07 1.932e-07 1.932e-07 1.932e-07 1.932e-07 1.932e-07 1.932e-07 
1.701e-06 1.701e-06 1.701e-06 1.701e-06 1.701e-06 1.701e-06 1.701e-06 1.701e-06 1.701e-06 1.701e-06 1.701e-06 1.701e-06 1.701e-06 1.701e-06 1.701e-06 1.701e-06 1.701e-06 1.701e-06 1.701e-06 1.701e-06 1.701e-06 
1.232e-05 1.232e-05 1.232e-05 1.232e-05 1.232e-05 1.232e-05 1.232e-05 1.232e-05 1.232e-05 1.232e-05 1.232e-05 1.232e-05 1.232e-05 1.232e-05 1.232e-05 1.232e-05 1.232e-05 1.232e-05 1.232e-05 1.232e-05 1.232e-05 
7.39e-05 7.39e-05 7.39e-05 7.39e-05 7.39e-05 7.39e-05 7.39e-05 7.39e-05 7.39e-05 7.39e-05 7.39e-05 7.39e-05 7.39e-05 7.39e-05 7.39e-05 7.39e-05 7.39e-05 7.39e-05 7.39e-05 7.39e-05 7.39e-05 
0.0003689 0.0003689 0.0003689 0.0003689 0.0003689 0.0003689 0.0003689 0.0003689 0.0003689 0.0003689 0.0003689 0.0003689 0.0003689 0.0003689 0.0003689 0.0003689 0.0003689 0.0003689 0.0003689 0.0003689 0.0003689 
0.001541 0.001541 0.001541 0.001541 0.001541 0.001541 0.001541 0.001541 0.001541 0.001541 0.001541 0.001541 0.001541 0.001541 0.001541 0.001541 0.001541 0.001541 0.001541 0.001541 0.001541 
0.005404 0.005404 0.005404 0.005404 0.005404 0.005404 0.005404 0.005404 0.005404 0.005404 0.005404 0.005404 0.005404 0.005404 0.005404 0.005404 0.005404 0.005404 0.005404 0.005404 0.005404 
0.01598 0.01598 0.01598 0.01598 0.01598 0.01598 0.01598 0.01598 0.01598 0.01598 0.01598 0.01598 0.01598 0.01598 0.01598 0.01598 0.01598 0.01598 0.01598 0.01598 0.01598 
0.03996 0.03996 0.03996 0.03996 0.03996 0.03996 0.03996 0.03996 0.03996 0.03996 0.03996 0.03996 0.03996 0.03996 0.03996 0.03996 0.03996 0.03996 0.03996 0.03996 0.03996 
0.08465 0.08465 0.08465 0.08465 0.08465 0.08465 0.08465 0.08465 0.08465 0.08465 0.08465 0.08465 0.08465 0.08465 0.08465 0.08465 0.08465 0.08465 0.08465 0.08465 0.08465 
0.1521 0.1521 0.1521 0.1521 0.1521 0.1521 0.1521 0.1521 0.1521 0.1521 0.1521 0.1521 0.1521 0.1521 0.1521 0.1521 0.1521 0.1521 0.1521 0.1521 0.1521 
0.2318 0.2318 0.2318 0.2318 0.2318 0.2318 0.2318 0.2318 0.2318 0.2318 0.2318 0.2318 0.2318 0.2318 0.2318 0.2318 0.2318 0.2318 0.2318 0.2318 0.2318 
0.2997 0.2997 0.2997 0.2997 0.2997 0.2997 0.2997 0.2997 0.2997 0.2997 0.2997 0.2997 0.2997 0.2997 0.2997 0.2997 0.2997 0.2997 0.2997 0.2997 0.2997 
0.3282 0.3282 0.3282 0.3282 0.3282 0.3282 0.3282 0.3282 0.3282 0.3282 0.3282 0.3282 0.3282 0.3282 0.3282 0.3282 0.3282 0.3282 0.3282 0.3282 0.3282 
0.3037 0.3037 0.3037 0.3037 0.3037 0.3037 0.3037 0.3037 0.3037 0.3037 0.3037 0.3037 0.3037 0.3037 0.3037 0.3037 0.3037 0.3037 0.3037 0.3037 0.3037 
0.2369 0.2369 0.2369 0.2369 0.2369 0.2369 0.2369 0.2369 0.2369 0.2369 0.2369 0.2369 0.2369 0.2369 0.2369 0.2369 0.2369 0.2369 0.2369 0.2369 0.2369 
0.1552 0.1552 0.1552 0.1552 0.1552 0.1552 0.1552 0.1552 0.1552 0.1552 0.1552 0.1552 0.1552 0.1552 0.1552 0.1552 0.1552 0.1552 0.1552 0.1552 0.1552 
0.08502 0.08502 0.08502 0.08502 0.08502 0.08502 0.08502 0.08502 0.08502 0.08502 0.08502 0.08502 0.08502 0.08502 0.08502 0.08502 0.08502 0.08502 0.08502 0.08502 0.08502 
0.03875 0.03875 0.03875 0.03875 0.03875 0.03875 0.03875 0.03875 0.03875 0.03875 0.03875 0.03875 0.03875 0.03875 0.03875 0.03875 0.03875 0.03875 0.03875 0.03875 0.03875 
0.01461 0.01461 0.01461 0.01461 0.01461 0.01461 0.01461 0.01461 0.01461 0.01461 0.01461 0.01461 0.01461 0.01461 0.01461 0.01461 0.01461 0.01461 0.01461 0.01461 0.01461 
0.004532 0.004532 0.004532 0.004532 0.004532 0.004532 0.004532 0.004532 0.004532 0.004532 0.004532 0.004532 0.004532 0.004532 0.004532 0.004532 0.004532 0.004532 0.004532 0.004532 0.004532 
0.001149 0.001149 0.001149 0.001149 0.001149 0.001149 0.001149 0.001149 0.001149 0.001149 0.001149 0.001149 0.001149 0.001149 0.001149 0.001149 0.001149 0.001149 0.001149 0.001149 0.001149 
0.000237 0.000237 0.000237 0.000237 0.000237 0.000237 0.000237 0.000237 0.000237 0.000237 0.000237 0.000237 0.000237 0.000237 0.000237 0.000237 0.000237 0.000237 0.000237 0.000237 0.000237 
3.947e-05 3.947e-05 3.947e-05 3.947e-05 3.947e-05 3.947e-05 3.947e-05 3.947e-05 3.947e-05 3.947e-05 3.947e-05 3.947e-05 3.947e-05 3.947e-05 3.947e-05 3.947e-05 3.947e-05 3.947e-05 3.947e-05 3.947e-05 3.947e-05 
5.283e-06 5.283e-06 5.283e-06 5.283e-06 5.283e-06 5.283e-06 5.283e-06 5.283e-06 5.283e-06 5.283e-06 5.283e-06 5.283e-06 5.283e-06 5.283e-06 5.283e-06 5.283e-06 5.283e-06 5.283e-06 5.283e-06 5.283e-06 5.283e-06 
5.653e-07 5.653e-07 5.653e-07 5.653e-07 5.653e-07 5.653e-07 5.653e-07 5.653e-07 5.653e-07 5.653e-07 5.653e-07 5.653e-07 5.653e-07 5.653e-07 5.653e-07 5.653e-07 5.653e-07 5.653e-07 5.653e-07 5.653e-07 5.653e-07 
4.815e-08 4.815e-08 4.815e-08 4.815e-08 4.815e-08 4.815e-08 4.815e-08 4.815e-08 4.815e-08 4.815e-08 4.815e-08 4.815e-08 4.815e-08 4.815e-08 4.815e-08 4.815e-08 4.815e-08 4.815e-08 4.815e-08 4.815e-08 4.815e-08 
3.252e-09 3.252e-09 3.252e-09 3.252e-09 3.252e-09 3.252e-09 3.252e-09 3.252e-09 3.252e-09 3.252e-09 3.252e-09 3.252e-09 3.252e-09 3.252e-09 3.252e-09 3.252e-09 3.252e-09 3.252e-09 3.252e-09 3.252e-09 3.252e-09 
1.735e-10 1.735e-10 1.735e-10 1.735e-10 1.735e-10 1.735e-10 1.735e-10 1.735e-10 1.735e-10 1.735e-10 1.735e-10 1.735e-10 1.735e-10 1.735e-10 1.735e-10 1.735e-10 1.735e-10 1.735e-10 1.735e-10 1.735e-10 1.735e-10 
7.295e-12 7.295e-12 7.295e-12 7.295e-12 7.295e-12 7.295e-12 7.295e-12 7.295e-12 7.295e-12 7.295e-12 7.295e-12 7.295e-12 7.295e-12 7.295e-12 7.295e-12 7.295e-12 7.295e-12 7.295e-12 7.295e-12 7.295e-12 7.295e-12 
2.411e-13 2.411e-13 2.411e-13 2.411e-13 2.411e-13 2.411e-13 2.411e-13 2.411e-13 2.411e-13 2.411e-13 2.411e-13 2.411e-13 2.411e-13 2.411e-13 2.411e-13 2.411e-13 2.411e-13 2.411e-13 2.411e-13 2.411e-13 2.411e-13 
6.252e-15 6.252e-15 6.252e-15 6.252e-15 6.252e-15 6.252e-15 6.252e-15 6.252e-15 6.252e-15 6.252e-15 6.252e-15 6.252e-15 6.252e-15 6.252e-15 6.252e-15 6.252e-15 6.252e-15 6.252e-15 6.252e-15 6.252e-15 6.252e-15 
1.27e-16 1.27e-16 1.27e-16 1.27e-16 1.27e-16 1.27e-16 1.27e-16 1.27e-16 1.27e-16 1.27e-16 1.27e-16 1.27e-16 1.27e-16 1.27e-16 1.27e-16 1.27e-16 1.27e-16 1.27e-16 1.27e-16 1.27e-16 1.27e-16 
4.453e-18 4.453e-18 4.453e-18 4.453e-18 4.453e-18 4.453e-18 4.453e-18 4.453e-18 4.453e-18 4.453e-18 4.453e-18 4.453e-18 4.453e-18 4.453e-18 4.453e-18 4.453e-18 4.453e-18 4.453e-18 4.453e-18 4.453e-18 4.453e-18 
1.242e-16 1.242e-16 1.242e-16 1.242e-16 1.242e-16 1.242e-16 1.242e-16 1.242e-16 1.242e-16 1.242e-16 1.242e-16 1.242e-16 1.242e-16 1.242e-16 1.242e-16 1.242e-16 1.242e-16 1.242e-16 1.242e-16 1.242e-16 1.242e-16 
5.004e-15 5.004e-15 5.004e-15 5.004e-15 5.004e-15 5.004e-15 5.004e-15 5.004e-15 5.004e-15 5.004e-15 5.004e-15 5.004e-15 5.004e-15 5.004e-15 5.004e-15 5.004e-15 5.004e-15 5.004e-15 5.004e-15 5.004e-15 5.004e-15 
1.6e-13 1.6e-13 1.6e-13 1.6e-13 1.6e-13 1.6e-13 1.6e-13 1.6e-13 1.6e-13 1.6e-13 1.6e-13 1.6e-13 1.6e-13 1.6e-13 1.6e-13 1.6e-13 1.6e-13 1.6e-13 1.6e-13 1.6e-13 1.6e-13 
</DataArray>
<DataArray Name="E" NumberOfComponents="1" format="ascii" type="Float64">
1.5 1.5 1.5 1.5 1.5 1.5 1.5 1.5 1.5 1.5 1.5 1.5 1.5 1.5 1.5 1.5 1.5 1.5 1.5 1.5 1.5 
1.5 1.5 1.5 1.5 1.5 1.5 1.5 1.5 1.5 1.5 1.5 1.5 1.5 1.5 1.5 1.5 1.5 1.5 1.5 1.5 1.5 
1.5 1.5 1.5 1.5 1.5 1.5 1.5 1.5 1.5 1.5 1.5 1.5 1.5 1.5 1.5 1.5 1.5 1.5 1.5 1.5 1.5 
1.5 1.5 1.5 1.5 1.5 1.5 1.5 1.5 1.5 1.5 1.5 1.5 1.5 1.5 1.5 1.5 1.5 1.5 1.5 1.5 1.5 
1.5 1.5 1.5 1.5 1.5 1.5 1.5 1.5 1.5 1.5 1.5 1.5 1.5 1.5 1.5 1.5 1.5 1.5 1.5 1.5 1.5 
1.5 1.5 1.5 1.5 1.5 1.5 1.5 1.5 1.5 1.5 1.5 1.5 1.5 1.5 1.5 1.5 1.5 1.5 1.5 1.5 1.5 
1.5 1.5 1.5 1.5 1.5 1.5 1.5 1.5 1.5 1.5 1.5 1.5 1.5 1.5 1.5 1.5 1.5 1.5 1.5 1.5 1.5 
1.5 1.5 1.5 1.5 1.5 1.5 1.5 1.5 1.5 1.5 1.5 1.5 1.5 1.5 1.5 1.5 1.5 1.5 1.5 1.5 1.5 
1.5 1.5 1.5 1.5 1.5 1.5 1.5 1.5 1.5 1.5 1.5 1.5 1.5 1.5 1.5 1.5 1.5 1.5 1.5 1.5 1.5 
1.5 1.5 1.5 1.5 1.5 1.5 1.5 1.5 1.5 1.5 1.5 1.5 1.5 1.5 1.5 1.5 1.5 1.5 1.5 1.5 1.5 
1.5 1.5 1.5 1.5 1.5 1.5 1.5 1.5 1.5 1.5 1.5 1.5 1.5 1.5 1.5 1.5 1.5 1.5 1.5 1.5 1.5 
1.5 1.5 1.5 1.5 1.5 1.5 1.5 1.5 1.5 1.5 1.5 1.5 1.5 1.5 1.5 1.5 1.5 1.5 1.5 1.5 1.5 
1.5 1.5 1.5 1.5 1.5 1.5 1.5 1.5 1.5 1.5 1.5 1.5 1.5 1.5 1.5 1.5 1.5 1.5 1.5 1.5 1.5 
1.5 1.5 1.5 1.5 1.5 1.5 1.5 1.5 1.5 1.5 1.5 1.5 1.5 1.5 1.5 1.5 1.5 1.5 1.5 1.5 1.5 
1.5 1.5 1.5 1.5 1.5 1.5 1.5 1.5 1.5 1.5 1.5 1.5 1.5 1.5 1.5 1.5 1.5 1.5 1.5 1.5 1.5 
1.5 1.5 1.5 1.5 1.5 1.5 1.5 1.5 1.5 1.5 1.5 1.5 1.5 1.5 1.5 1.5 1.5 1.5 1.5 1.5 1.5 
1.5 1.5 1.5 1.5 1.5 1.5 1.5 1.5 1.5 1.5 1.5 1.5 1.5 1.5 1.5 1.5 1.5 1.5 1.5 1.5 1.5 
1.5 1.5 1.5 1.5 1.5 1.5 1.5 1.5 1.5 1.5 1.5 1.5 1.5 1.5 1.5 1.5 1.5 1.5 1.5 1.5 1.5 
1.5 1.5 1.5 1.5 1.5 1.5 1.5 1.5 1.5 1.5 1.5 1.5 1.5 1.5 1.5 1.5 1.5 1.5 1.5 1.5 1.5 
1.5 1.5 1.5 1.5 1.5 1.5 1.5 1.5 1.5 1.5 1.5 1.5 1.5 1.5 1.5 1.5 1.5 1.5 1.5 1.5 1.5 
1.5 1.5 1.5 1.5 1.5 1.5 1.5 1.5 1.5 1.5 1.5 1.5 1.5 1.5 1.5 1.5 1.5 1.5 1.5 1.5 1.5 
1.5 1.5 1.5 1.5 1.5 1.5 1.5 1.5 1.5 1.5 1.5 1.5 1.5 1.5 1.5 1.5 1.5 1.5 1.5 1.5 1.5 
1.5 1.5 1.5 1.5 1.5 1.5 1.5 1.5 1.5 1.5 1.5 1.5 1.5 1.5 1.5 1.5 1.5 1.5 1.5 1.5 1.5 
1.5 1.5 1.5 1.5 1.5 1.5 1.5 1.5 1.5 1.5 1.5 1.5 1.5 1.5 1.5 1.5 1.5 1.5 1.5 1.5 1.5 
1.5 1.5 1.5 1.5 1.5 1.5 1.5 1.5 1.5 1.5 1.5 1.5 1.5 1.5 1.5 1.5 1.5 1.5 1.5 1.5 1.5 
1.5 1.5 1.5 1.5 1.5 1.5 1.5 1.5 1.5 1.5 1.5 1.5 1.5 1.5 1.5 1.5 1.5 1.5 1.5 1.5 1.5 
1.5 1.5 1.5 1.5 1.5 1.5 1.5 1.5 1.5 1.5 1.5 1.5 1.5 1.5 1.5 1.5 1.5 1.5 1.5 1.5 1.5 
1.5 1.5 1.5 1.5 1.5 1.5 1.5 1.5 1.5 1.5 1.5 1.5 1.5 1.5 1.5 1.5 1.5 1.5 1.5 1.5 1.5 
1.5 1.5 1.5 1.5 1.5 1.5 1.5 1.5 1.5 1.5 1.5 1.5 1.5 1.5 1.5 1.5 1.5 1.5 1.5 1.5 1.5 
1.5 1.5 1.5 1.5 1.5 1.5 1.5 1.5 1.5 1.5 1.5 1.5 1.5 1.5 1.5 1.5 1.5 1.5 1.5 1.5 1.5 
1.5 1.5 1.5 1.5 1.5 1.5 1.5 1.5 1.5 1.5 1.5 1.5 1.5 1.5 1.5 1.5 1.5 1.5 1.5 1.5 1.5 
1.5 1.5 1.5 1.5 1.5 1.5 1.5 1.5 1.5 1.5 1.5 1.5 1.5 1.5 1.5 1.5 1.5 1.5 1.5 1.5 1.5 
1.5 1.5 1.5 1.5 1.5 1.5 1.5 1.5 1.5 1.5 1.5 1.5 1.5 1.5 1.5 1.5 1.5 1.5 1.5 1.5 1.5 
1.5 1.5 1.5 1.5 1.5 1.5 1.5 1.5 1.5 1.5 1.5 1.5 1.5 1.5 1.5 1.5 1.5 1.5 1.5 1.5 1.5 
1.5 1.5 1.5 1.5 1.5 1.5 1.5 1.5 1.5 1.5 1.5 1.5 1.5 1.5 1.5 1.5 1.5 1.5 1.5 1.5 1.5 
1.5 1.5 1.5 1.5 1.5 1.5 1.5 1.5 1.5 1.5 1.5 1.5 1.5 1.5 1.5 1.5 1.5 1.5 1.5 1.5 1.5 
1.5 1.5 1.5 1.5 1.5 1.5 1.5 1.5 1.5 1.5 1.5 1.5 1.5 1.5 1.5 1.5 1.5 1.5 1.5 1.5 1.5 
1.5 1.5 1.5 1.5 1.5 1.5 1.5 1.5 1.5 1.5 1.5 1.5 1.5 1.5 1.5 1.5 1.5 1.5 1.5 1.5 1.5 
1.5 1.5 1.5 1.5 1.5 1.5 1.5 1.5 1.5 1.5 1.5 1.5 1.5 1.5 1.5 1.5 1.5 1.5 1.5 1.5 1.5 
1.5 1.5 1.5 1.5 1.5 1.5 1.5 1.5 1.5 1.5 1.5 1.5 1.5 1.5 1.5 1.5 1.5 1.5 1.5 1.5 1.5 
1.5 1.5 1.5 1.5 1.5 1.5 1.5 1.5 1.5 1.5 1.5 1.5 1.5 1.5 1.5 1.5 1.5 1.5 1.5 1.5 1.5 
</DataArray>
<DataArray Name="ne" NumberOfComponents="1" format="ascii" type="Float64">
1 1 1 1 1 1 1 1 1 1 1 1 1 1 1 1 1 1 1 1 1 
1 1 1 1 1 1 1 1 1 1 1 1 1 1 1 1 1 1 1 1 1 
1 1 1 1 1 1 1 1 1 1 1 1 1 1 1 1 1 1 1 1 1 
1 1 1 1 1 1 1 1 1 1 1 1 1 1 1 1 1 1 1 1 1 
1 1 1 1 1 1 1 1 1 1 1 1 1 1 1 1 1 1 1 1 1 
1 1 1 1 1 1 1 1 1 1 1 1 1 1 1 1 1 1 1 1 1 
1 1 1 1 1 1 1 1 1 1 1 1 1 1 1 1 1 1 1 1 1 
1 1 1 1 1 1 1 1 1 1 1 1 1 1 1 1 1 1 1 1 1 
1 1 1 1 1 1 1 1 1 1 1 1 1 1 1 1 1 1 1 1 1 
1 1 1 1 1 1 1 1 1 1 1 1 1 1 1 1 1 1 1 1 1 
1 1 1 1 1 1 1 1 1 1 1 1 1 1 1 1 1 1 1 1 1 
1 1 1 1 1 1 1 1 1 1 1 1 1 1 1 1 1 1 1 1 1 
1 1 1 1 1 1 1 1 1 1 1 1 1 1 1 1 1 1 1 1 1 
1 1 1 1 1 1 1 1 1 1 1 1 1 1 1 1 1 1 1 1 1 
1 1 1 1 1 1 1 1 1 1 1 1 1 1 1 1 1 1 1 1 1 
1 1 1 1 1 1 1 1 1 1 1 1 1 1 1 1 1 1 1 1 1 
1 1 1 1 1 1 1 1 1 1 1 1 1 1 1 1 1 1 1 1 1 
1 1 1 1 1 1 1 1 1 1 1 1 1 1 1 1 1 1 1 1 1 
1 1 1 1 1 1 1 1 1 1 1 1 1 1 1 1 1 1 1 1 1 
1 1 1 1 1 1 1 1 1 1 1 1 1 1 1 1 1 1 1 1 1 
1 1 1 1 1 1 1 1 1 1 1 1 1 1 1 1 1 1 1 1 1 
1 1 1 1 1 1 1 1 1 1 1 1 1 1 1 1 1 1 1 1 1 
1 1 1 1 1 1 1 1 1 1 1 1 1 1 1 1 1 1 1 1 1 
1 1 1 1 1 1 1 1 1 1 1 1 1 1 1 1 1 1 1 1 1 
1 1 1 1 1 1 1 1 1 1 1 1 1 1 1 1 1 1 1 1 1 
1 1 1 1 1 1 1 1 1 1 1 1 1 1 1 1 1 1 1 1 1 
1 1 1 1 1 1 1 1 1 1 1 1 1 1 1 1 1 1 1 1 1 
1 1 1 1 1 1 1 1 1 1 1 1 1 1 1 1 1 1 1 1 1 
1 1 1 1 1 1 1 1 1 1 1 1 1 1 1 1 1 1 1 1 1 
1 1 1 1 1 1 1 1 1 1 1 1 1 1 1 1 1 1 1 1 1 
1 1 1 1 1 1 1 1 1 1 1 1 1 1 1 1 1 1 1 1 1 
1 1 1 1 1 1 1 1 1 1 1 1 1 1 1 1 1 1 1 1 1 
1 1 1 1 1 1 1 1 1 1 1 1 1 1 1 1 1 1 1 1 1 
1 1 1 1 1 1 1 1 1 1 1 1 1 1 1 1 1 1 1 1 1 
1 1 1 1 1 1 1 1 1 1 1 1 1 1 1 1 1 1 1 1 1 
1 1 1 1 1 1 1 1 1 1 1 1 1 1 1 1 1 1 1 1 1 
1 1 1 1 1 1 1 1 1 1 1 1 1 1 1 1 1 1 1 1 1 
1 1 1 1 1 1 1 1 1 1 1 1 1 1 1 1 1 1 1 1 1 
1 1 1 1 1 1 1 1 1 1 1 1 1 1 1 1 1 1 1 1 1 
1 1 1 1 1 1 1 1 1 1 1 1 1 1 1 1 1 1 1 1 1 
1 1 1 1 1 1 1 1 1 1 1 1 1 1 1 1 1 1 1 1 1 
</DataArray>
</PointData>
</Piece>
</ImageData>
</VTKFile>
