<VTKFile type="ImageData">
<ImageData Origin="0 -10 0" Spacing="0.5 0.5 1" WholeExtent="0 20 0 40 0 0">
<Piece Extent="0 20 0 40 0 0">
<PointData>
<DataArray Name="f" NumberOfComponents="1" format="ascii" type="Float64">
1.493e-19 1.493e-19 1.493e-19 1.493e-19 1.493e-19 1.493e-19 1.493e-19 1.493e-19 1.493e-19 1.493e-19 1.493e-19 1.493e-19 1.493e-19 1.493e-19 1.493e-19 1.493e-19 1.493e-19 1.493e-19 1.493e-19 1.493e-19 1.493e-19 
1.197e-17 1.197e-17 1.197e-17 1.197e-17 1.197e-17 1.197e-17 1.197e-17 1.197e-17 1.197e-17 1.197e-17 1.197e-17 1.197e-17 1.197e-17 1.197e-17 1.197e-17 1.197e-17 1.197e-17 1.197e-17 1.197e-17 1.197e-17 1.197e-17 
7.492e-16 7.492e-16 7.492e-16 7.492e-16 7.492e-16 7.492e-16 7.492e-16 7.492e-16 7.492e-16 7.492e-16 7.492e-16 7.492e-16 7.492e-16 7.492e-16 7.492e-16 7.492e-16 7.492e-16 7.492e-16 7.492e-16 7.492e-16 7.492e-16 
3.663e-14 3.663e-14 3.663e-14 3.663e-14 3.663e-14 3.663e-14 3.663e-14 3.663e-14 3.663e-14 3.663e-14 3.663e-14 3.663e-14 3.663e-14 3.663e-14 3.663e-14 3.663e-14 3.663e-14 3.663e-14 3.663e-14 3.663e-14 3.663e-14 
1.401e-12 1.401e-12 1.401e-12 1.401e-12 1.401e-12 1.401e-12 1.401e-12 1.401e-12 1.401e-12 1.401e-12 1.401e-12 1.401e-12 1.401e-12 1.401e-12 1.401e-12 1.401e-12 1.401e-12 1.401e-12 1.401e-12 1.401e-12 1.401e-12 
4.192e-11 4.192e-11 4.192e-11 4.192e-11 4.192e-11 4.192e-11 4.192e-11 4.192e-11 4.192e-11 4.192e-11 4.192e-11 4.192e-11 4.192e-11 4.192e-11 4.192e-11 4.192e-11 4.192e-11 4.192e-11 4.192e-11 4.192e-11 4.192e-11 
9.831e-10 9.831e-10 9.831e-10 9.831e-10 9.831e-10 9.831e-10 9.831e-10 9.831e-10 9.831e-10 9.831e-10 9.831e-10 9.831e-10 9.831e-10 9.831e-10 9.831e-10 9.831e-10 9.831e-10 9.831e-10 9.831e-10 9.831e-10 9.831e-10 
1.81e-08 1.81e-08 1.81e-08 1.81e-08 1.81e-08 1.81e-08 1.81e-08 1.81e-08 1.81e-08 1.81e-08 1.81e-08 1.81e-08 1.81e-08 1.81e-08 1.81e-08 1.81e-08 1.81e-08 1.81e-08 1.81e-08 1.81e-08 1.81e-08 
2.619e-07 2.619e-07 2.619e-07 2.619e-07 2.619e-07 2.619e-07 2.619e-07 2.619e-07 2.619e-07 2.619e-07 2.619e-07 2.619e-07 2.619e-07 2.619e-07 2.619e-07 2.619e-07 2.619e-07 2.619e-07 2.619e-07 2.619e-07 2.619e-07 
2.987e-06 2.987e-06 2.987e-06 2.987e-06 2.987e-06 2.987e-06 2.987e-06 2.987e-06 2.987e-06 2.987e-06 2.987e-06 2.987e-06 2.987e-06 2.987e-06 2.987e-06 2.987e-06 2.987e-06 2.987e-06 2.987e-06 2.987e-06 2.987e-06 
2.689e-05 2.689e-05 2.689e-05 2.689e-05 2.689e-05 2.689e-05 2.689e-05 2.689e-05 2.689e-05 2.689e-05 2.689e-05 2.689e-05 2.689e-05 2.689e-05 2.689e-05 2.689e-05 2.689e-05 2.689e-05 2.689e-05 2.689e-05 2.689e-05 
0.0001917 0.0001917 0.0001917 0.0001917 0.0001917 0.0001917 0.0001917 0.0001917 0.0001917 0.0001917 0.0001917 0.0001917 0.0001917 0.0001917 0.0001917 0.0001917 0.0001917 0.0001917 0.0001917 0.0001917 0.0001917 
0.001085 0.001085 0.001085 0.001085 0.001085 0.001085 0.001085 0.001085 0.001085 0.001085 0.001085 0.001085 0.001085 0.001085 0.001085 0.001085 0.001085 0.001085 0.001085 0.001085 0.001085 
0.004883 0.004883 0.004883 0.004883 0.004883 0.004883 0.004883 0.004883 0.004883 0.004883 0.004883 0.004883 0.004883 0.004883 0.004883 0.004883 0.004883 0.004883 0.004883 0.004883 0.004883 
0.01754 0.01754 0.01754 0.01754 0.01754 0.01754 0.01754 0.01754 0.01754 0.01754 0.01754 0.01754 0.01754 0.01754 0.01754 0.01754 0.01754 0.01754 0.01754 0.01754 0.01754 
0.05037 0.05037 0.05037 0.05037 0.05037 0.05037 0.05037 0.05037 0.05037 0.05037 0.05037 0.05037 0.05037 0.05037 0.05037 0.05037 0.05037 0.05037 0.05037 0.05037 0.05037 
0.1158 0.1158 0.1158 0.1158 0.1158 0.1158 0.1158 0.1158 0.1158 0.1158 0.1158 0.1158 0.1158 0.1158 0.1158 0.1158 0.1158 0.1158 0.1158 0.1158 0.1158 
0.2135 0.2135 0.2135 0.2135 0.2135 0.2135 0.2135 0.2135 0.2135 0.2135 0.2135 0.2135 0.2135 0.2135 0.2135 0.2135 0.2135 0.2135 0.2135 0.2135 0.2135 
0.3157 0.3157 0.3157 0.3157 0.3157 0.3157 0.3157 0.3157 0.3157 0.3157 0.3157 0.3157 0.3157 0.3157 0.3157 0.3157 0.3157 0.3157 0.3157 0.3157 0.3157 
0.374 0.374 0.374 0.374 0.374 0.374 0.374 0.374 0.374 0.374 0.374 0.374 0.374 0.374 0.374 0.374 0.374 0.374 0.374 0.374 0.374 
0.3549 0.3549 0.3549 0.3549 0.3549 0.3549 0.3549 0.3549 0.3549 0.3549 0.3549 0.3549 0.3549 0.3549 0.3549 0.3549 0.3549 0.3549 0.3549 0.3549 0.3549 
0.2692 0.2692 0.2692 0.2692 0.2692 0.2692 0.2692 0.2692 0.2692 0.2692 0.2692 0.2692 0.2692 0.2692 0.2692 0.2692 0.2692 0.2692 0.2692 0.2692 0.2692 
0.1628 0.1628 0.1628 0.1628 0.1628 0.1628 0.1628 0.1628 0.1628 0.1628 0.1628 0.1628 0.1628 0.1628 0.1628 0.1628 0.1628 0.1628 0.1628 0.1628 0.1628 
0.07837 0.07837 0.07837 0.07837 0.07837 0.07837 0.07837 0.07837 0.07837 0.07837 0.07837 0.07837 0.07837 0.07837 0.07837 0.07837 0.07837 0.07837 0.07837 0.07837 0.07837 
0.02993 0.02993 0.02993 0.02993 0.02993 0.02993 0.02993 0.02993 0.02993 0.02993 0.02993 0.02993 0.02993 0.02993 0.02993 0.02993 0.02993 0.02993 0.02993 0.02993 0.02993 
0.009047 0.009047 0.009047 0.009047 0.009047 0.009047 0.009047 0.009047 0.009047 0.009047 0.009047 0.009047 0.009047 0.009047 0.009047 0.009047 0.009047 0.009047 0.009047 0.009047 0.009047 
0.002159 0.002159 0.002159 0.002159 0.002159 0.002159 0.002159 0.002159 0.002159 0.002159 0.002159 0.002159 0.002159 0.002159 0.002159 0.002159 0.002159 0.002159 0.002159 0.002159 0.002159 
0.0004059 0.0004059 0.0004059 0.0004059 0.0004059 0.0004059 0.0004059 0.0004059 0.0004059 0.0004059 0.0004059 0.0004059 0.0004059 0.0004059 0.0004059 0.0004059 0.0004059 0.0004059 0.0004059 0.0004059 0.0004059 
5.998e-05 5.998e-05 5.998e-05 5.998e-05 5.998e-05 5.998e-05 5.998e-05 5.998e-05 5.998e-05 5.998e-05 5.998e-05 5.998e-05 5.998e-05 5.998e-05 5.998e-05 5.998e-05 5.998e-05 5.998e-05 5.998e-05 5.998e-05 5.998e-05 
6.956e-06 6.956e-06 6.956e-06 6.956e-06 6.956e-06 6.956e-06 6.956e-06 6.956e-06 6.956e-06 6.956e-06 6.956e-06 6.956e-06 6.956e-06 6.956e-06 6.956e-06 6.956e-06 6.956e-06 6.956e-06 6.956e-06 6.956e-06 6.956e-06 
6.321e-07 6.321e-07 6.321e-07 6.321e-07 6.321e-07 6.321e-07 6.321e-07 6.321e-07 6.321e-07 6.321e-07 6.321e-07 6.321e-07 6.321e-07 6.321e-07 6.321e-07 6.321e-07 6.321e-07 6.321e-07 6.321e-07 6.321e-07 6.321e-07 
4.495e-08 4.495e-08 4.495e-08 4.495e-08 4.495e-08 4.495e-08 4.495e-08 4.495e-08 4.495e-08 4.495e-08 4.495e-08 4.495e-08 4.495e-08 4.495e-08 4.495e-08 4.495e-08 4.495e-08 4.495e-08 4.495e-08 4.495e-08 4.495e-08 
2.5e-09 2.5e-09 2.5e-09 2.5e-09 2.5e-09 2.5e-09 2.5e-09 2.5e-09 2.5e-09 2.5e-09 2.5e-09 2.5e-09 2.5e-09 2.5e-09 2.5e-09 2.5e-09 2.5e-09 2.5e-09 2.5e-09 2.5e-09 2.5e-09 
1.086e-10 1.086e-10 1.086e-10 1.086e-10 1.086e-10 1.086e-10 1.086e-10 1.086e-10 1.086e-10 1.086e-10 1.086e-10 1.086e-10 1.086e-10 1.086e-10 1.086e-10 1.086e-10 1.086e-10 1.086e-10 1.086e-10 1.086e-10 1.086e-10 
3.683e-12 3.683e-12 3.683e-12 3.683e-12 3.683e-12 3.683e-12 3.683e-12 3.683e-12 3.683e-12 3.683e-12 3.683e-12 3.683e-12 3.683e-12 3.683e-12 3.683e-12 3.683e-12 3.683e-12 3.683e-12 3.683e-12 3.683e-12 3.683e-12 
9.747e-14 9.747e-14 9.747e-14 9.747e-14 9.747e-14 9.747e-14 9.747e-14 9.747e-14 9.747e-14 9.747e-14 9.747e-14 9.747e-14 9.747e-14 9.747e-14 9.747e-14 9.747e-14 9.747e-14 9.747e-14 9.747e-14 9.747e-14 9.747e-14 
2.012e-15 2.012e-15 2.012e-15 2.012e-15 2.012e-15 2.012e-15 2.012e-15 2.012e-15 2.012e-15 2.012e-15 2.012e-15 2.012e-15 2.012e-15 2.012e-15 2.012e-15 2.012e-15 2.012e-15 2.012e-15 2.012e-15 2.012e-15 2.012e-15 
3.238e-17 3.238e-17 3.238e-17 3.238e-17 3.238e-17 3.238e-17 3.238e-17 3.238e-17 3.238e-17 3.238e-17 3.238e-17 3.238e-17 3.238e-17 3.238e-17 3.238e-17 3.238e-17 3.238e-17 3.238e-17 3.238e-17 3.238e-17 3.238e-17 
4.063e-19 4.063e-19 4.063e-19 4.063e-19 4.063e-19 4.063e-19 4.063e-19 4.063e-19 4.063e-19 4.063e-19 4.063e-19 4.063e-19 4.063e-19 4.063e-19 4.063e-19 4.063e-19 4.063e-19 4.063e-19 4.063e-19 4.063e-19 4.063e-19 
0 0 0 0 0 0 0 0 0 0 0 0 0 0 0 0 0 0 0 0 0 
0 0 0 0 0 0 0 0 0 0 0 0 0 0 0 0 0 0 0 0 0 
</DataArray>
<DataArray Name="E" NumberOfComponents="1" format="ascii" type="Float64">
1.5 1.5 1.5 1.5 1.5 1.5 1.5 1.5 1.5 1.5 1.5 1.5 1.5 1.5 1.5 1.5 1.5 1.5 1.5 1.5 1.5 
1.5 1.5 1.5 1.5 1.5 1.5 1.5 1.5 1.5 1.5 1.5 1.5 1.5 1.5 1.5 1.5 1.5 1.5 1.5 1.5 1.5 
1.5 1.5 1.5 1.5 1.5 1.5 1.5 1.5 1.5 1.5 1.5 1.5 1.5 1.5 1.5 1.5 1.5 1.5 1.5 1.5 1.5 
1.5 1.5 1.5 1.5 1.5 1.5 1.5 1.5 1.5 1.5 1.5 1.5 1.5 1.5 1.5 1.5 1.5 1.5 1.5 1.5 1.5 
1.5 1.5 1.5 1.5 1.5 1.5 1.5 1.5 1.5 1.5 1.5 1.5 1.5 1.5 1.5 1.5 1.5 1.5 1.5 1.5 1.5 
1.5 1.5 1.5 1.5 1.5 1.5 1.5 1.5 1.5 1.5 1.5 1.5 1.5 1.5 1.5 1.5 1.5 1.5 1.5 1.5 1.5 
1.5 1.5 1.5 1.5 1.5 1.5 1.5 1.5 1.5 1.5 1.5 1.5 1.5 1.5 1.5 1.5 1.5 1.5 1.5 1.5 1.5 
1.5 1.5 1.5 1.5 1.5 1.5 1.5 1.5 1.5 1.5 1.5 1.5 1.5 1.5 1.5 1.5 1.5 1.5 1.5 1.5 1.5 
1.5 1.5 1.5 1.5 1.5 1.5 1.5 1.5 1.5 1.5 1.5 1.5 1.5 1.5 1.5 1.5 1.5 1.5 1.5 1.5 1.5 
1.5 1.5 1.5 1.5 1.5 1.5 1.5 1.5 1.5 1.5 1.5 1.5 1.5 1.5 1.5 1.5 1.5 1.5 1.5 1.5 1.5 
1.5 1.5 1.5 1.5 1.5 1.5 1.5 1.5 1.5 1.5 1.5 1.5 1.5 1.5 1.5 1.5 1.5 1.5 1.5 1.5 1.5 
1.5 1.5 1.5 1.5 1.5 1.5 1.5 1.5 1.5 1.5 1.5 1.5 1.5 1.5 1.5 1.5 1.5 1.5 1.5 1.5 1.5 
1.5 1.5 1.5 1.5 1.5 1.5 1.5 1.5 1.5 1.5 1.5 1.5 1.5 1.5 1.5 1.5 1.5 1.5 1.5 1.5 1.5 
1.5 1.5 1.5 1.5 1.5 1.5 1.5 1.5 1.5 1.5 1.5 1.5 1.5 1.5 1.5 1.5 1.5 1.5 1.5 1.5 1.5 
1.5 1.5 1.5 1.5 1.5 1.5 1.5 1.5 1.5 1.5 1.5 1.5 1.5 1.5 1.5 1.5 1.5 1.5 1.5 1.5 1.5 
1.5 1.5 1.5 1.5 1.5 1.5 1.5 1.5 1.5 1.5 1.5 1.5 1.5 1.5 1.5 1.5 1.5 1.5 1.5 1.5 1.5 
1.5 1.5 1.5 1.5 1.5 1.5 1.5 1.5 1.5 1.5 1.5 1.5 1.5 1.5 1.5 1.5 1.5 1.5 1.5 1.5 1.5 
1.5 1.5 1.5 1.5 1.5 1.5 1.5 1.5 1.5 1.5 1.5 1.5 1.5 1.5 1.5 1.5 1.5 1.5 1.5 1.5 1.5 
1.5 1.5 1.5 1.5 1.5 1.5 1.5 1.5 1.5 1.5 1.5 1.5 1.5 1.5 1.5 1.5 1.5 1.5 1.5 1.5 1.5 
1.5 1.5 1.5 1.5 1.5 1.5 1.5 1.5 1.5 1.5 1.5 1.5 1.5 1.5 1.5 1.5 1.5 1.5 1.5 1.5 1.5 
1.5 1.5 1.5 1.5 1.5 1.5 1.5 1.5 1.5 1.5 1.5 1.5 1.5 1.5 1.5 1.5 1.5 1.5 1.5 1.5 1.5 
1.5 1.5 1.5 1.5 1.5 1.5 1.5 1.5 1.5 1.5 1.5 1.5 1.5 1.5 1.5 1.5 1.5 1.5 1.5 1.5 1.5 
1.5 1.5 1.5 1.5 1.5 1.5 1.5 1.5 1.5 1.5 1.5 1.5 1.5 1.5 1.5 1.5 1.5 1.5 1.5 1.5 1.5 
1.5 1.5 1.5 1.5 1.5 1.5 1.5 1.5 1.5 1.5 1.5 1.5 1.5 1.5 1.5 1.5 1.5 1.5 1.5 1.5 1.5 
1.5 1.5 1.5 1.5 1.5 1.5 1.5 1.5 1.5 1.5 1.5 1.5 1.5 1.5 1.5 1.5 1.5 1.5 1.5 1.5 1.5 
1.5 1.5 1.5 1.5 1.5 1.5 1.5 1.5 1.5 1.5 1.5 1.5 1.5 1.5 1.5 1.5 1.5 1.5 1.5 1.5 1.5 
1.5 1.5 1.5 1.5 1.5 1.5 1.5 1.5 1.5 1.5 1.5 1.5 1.5 1.5 1.5 1.5 1.5 1.5 1.5 1.5 1.5 
1.5 1.5 1.5 1.5 1.5 1.5 1.5 1.5 1.5 1.5 1.5 1.5 1.5 1.5 1.5 1.5 1.5 1.5 1.5 1.5 1.5 
1.5 1.5 1.5 1.5 1.5 1.5 1.5 1.5 1.5 1.5 1.5 1.5 1.5 1.5 1.5 1.5 1.5 1.5 1.5 1.5 1.5 
1.5 1.5 1.5 1.5 1.5 1.5 1.5 1.5 1.5 1.5 1.5 1.5 1.5 1.5 1.5 1.5 1.5 1.5 1.5 1.5 1.5 
1.5 1.5 1.5 1.5 1.5 1.5 1.5 1.5 1.5 1.5 1.5 1.5 1.5 1.5 1.5 1.5 1.5 1.5 1.5 1.5 1.5 
1.5 1.5 1.5 1.5 1.5 1.5 1.5 1.5 1.5 1.5 1.5 1.5 1.5 1.5 1.5 1.5 1.5 1.5 1.5 1.5 1.5 
1.5 1.5 1.5 1.5 1.5 1.5 1.5 1.5 1.5 1.5 1.5 1.5 1.5 1.5 1.5 1.5 1.5 1.5 1.5 1.5 1.5 
1.5 1.5 1.5 1.5 1.5 1.5 1.5 1.5 1.5 1.5 1.5 1.5 1.5 1.5 1.5 1.5 1.5 1.5 1.5 1.5 1.5 
1.5 1.5 1.5 1.5 1.5 1.5 1.5 1.5 1.5 1.5 1.5 1.5 1.5 1.5 1.5 1.5 1.5 1.5 1.5 1.5 1.5 
1.5 1.5 1.5 1.5 1.5 1.5 1.5 1.5 1.5 1.5 1.5 1.5 1.5 1.5 1.5 1.5 1.5 1.5 1.5 1.5 1.5 
1.5 1.5 1.5 1.5 1.5 1.5 1.5 1.5 1.5 1.5 1.5 1.5 1.5 1.5 1.5 1.5 1.5 1.5 1.5 1.5 1.5 
1.5 1.5 1.5 1.5 1.5 1.5 1.5 1.5 1.5 1.5 1.5 1.5 1.5 1.5 1.5 1.5 1.5 1.5 1.5 1.5 1.5 
1.5 1.5 1.5 1.5 1.5 1.5 1.5 1.5 1.5 1.5 1.5 1.5 1.5 1.5 1.5 1.5 1.5 1.5 1.5 1.5 1.5 
1.5 1.5 1.5 1.5 1.5 1.5 1.5 1.5 1.5 1.5 1.5 1.5 1.5 1.5 1.5 1.5 1.5 1.5 1.5 1.5 1.5 
1.5 1.5 1.5 1.5 1.5 1.5 1.5 1.5 1.5 1.5 1.5 1.5 1.5 1.5 1.5 1.5 1.5 1.5 1.5 1.5 1.5 
</DataArray>
<DataArray Name="ne" NumberOfComponents="1" format="ascii" type="Float64">
1 1 1 1 1 1 1 1 1 1 1 1 1 1 1 1 1 1 1 1 1 
1 1 1 1 1 1 1 1 1 1 1 1 1 1 1 1 1 1 1 1 1 
1 1 1 1 1 1 1 1 1 1 1 1 1 1 1 1 1 1 1 1 1 
1 1 1 1 1 1 1 1 1 1 1 1 1 1 1 1 1 1 1 1 1 
1 1 1 1 1 1 1 1 1 1 1 1 1 1 1 1 1 1 1 1 1 
1 1 1 1 1 1 1 1 1 1 1 1 1 1 1 1 1 1 1 1 1 
1 1 1 1 1 1 1 1 1 1 1 1 1 1 1 1 1 1 1 1 1 
1 1 1 1 1 1 1 1 1 1 1 1 1 1 1 1 1 1 1 1 1 
1 1 1 1 1 1 1 1 1 1 1 1 1 1 1 1 1 1 1 1 1 
1 1 1 1 1 1 1 1 1 1 1 1 1 1 1 1 1 1 1 1 1 
1 1 1 1 1 1 1 1 1 1 1 1 1 1 1 1 1 1 1 1 1 
1 1 1 1 1 1 1 1 1 1 1 1 1 1 1 1 1 1 1 1 1 
1 1 1 1 1 1 1 1 1 1 1 1 1 1 1 1 1 1 1 1 1 
1 1 1 1 1 1 1 1 1 1 1 1 1 1 1 1 1 1 1 1 1 
1 1 1 1 1 1 1 1 1 1 1 1 1 1 1 1 1 1 1 1 1 
1 1 1 1 1 1 1 1 1 1 1 1 1 1 1 1 1 1 1 1 1 
1 1 1 1 1 1 1 1 1 1 1 1 1 1 1 1 1 1 1 1 1 
1 1 1 1 1 1 1 1 1 1 1 1 1 1 1 1 1 1 1 1 1 
1 1 1 1 1 1 1 1 1 1 1 1 1 1 1 1 1 1 1 1 1 
1 1 1 1 1 1 1 1 1 1 1 1 1 1 1 1 1 1 1 1 1 
1 1 1 1 1 1 1 1 1 1 1 1 1 1 1 1 1 1 1 1 1 
1 1 1 1 1 1 1 1 1 1 1 1 1 1 1 1 1 1 1 1 1 
1 1 1 1 1 1 1 1 1 1 1 1 1 1 1 1 1 1 1 1 1 
1 1 1 1 1 1 1 1 1 1 1 1 1 1 1 1 1 1 1 1 1 
1 1 1 1 1 1 1 1 1 1 1 1 1 1 1 1 1 1 1 1 1 
1 1 1 1 1 1 1 1 1 1 1 1 1 1 1 1 1 1 1 1 1 
1 1 1 1 1 1 1 1 1 1 1 1 1 1 1 1 1 1 1 1 1 
1 1 1 1 1 1 1 1 1 1 1 1 1 1 1 1 1 1 1 1 1 
1 1 1 1 1 1 1 1 1 1 1 1 1 1 1 1 1 1 1 1 1 
1 1 1 1 1 1 1 1 1 1 1 1 1 1 1 1 1 1 1 1 1 
1 1 1 1 1 1 1 1 1 1 1 1 1 1 1 1 1 1 1 1 1 
1 1 1 1 1 1 1 1 1 1 1 1 1 1 1 1 1 1 1 1 1 
1 1 1 1 1 1 1 1 1 1 1 1 1 1 1 1 1 1 1 1 1 
1 1 1 1 1 1 1 1 1 1 1 1 1 1 1 1 1 1 1 1 1 
1 1 1 1 1 1 1 1 1 1 1 1 1 1 1 1 1 1 1 1 1 
1 1 1 1 1 1 1 1 1 1 1 1 1 1 1 1 1 1 1 1 1 
1 1 1 1 1 1 1 1 1 1 1 1 1 1 1 1 1 1 1 1 1 
1 1 1 1 1 1 1 1 1 1 1 1 1 1 1 1 1 1 1 1 1 
1 1 1 1 1 1 1 1 1 1 1 1 1 1 1 1 1 1 1 1 1 
1 1 1 1 1 1 1 1 1 1 1 1 1 1 1 1 1 1 1 1 1 
1 1 1 1 1 1 1 1 1 1 1 1 1 1 1 1 1 1 1 1 1 
</DataArray>
</PointData>
</Piece>
</ImageData>
</VTKFile>
