<VTKFile type="ImageData">
<ImageData WholeExtent="0 40 0 999 0 0" Origin="0 0 0" Spacing="1 0.0615 1">
<Piece Extent="0 40 0 999 0 0">
<PointData>
<DataArray Name="phi" NumberOfComponents="1" format="ascii" type="Float64">
0 -0.0840816 -0.274237 -0.481096 -0.737809 -0.875305 -0.957684 -1.25675 -1.52563 -1.81888 -2.11249 -2.36262 -2.60369 -2.66987 -2.40238 -1.90186 -1.50289 -1.24456 -0.77513 -0.144694 0.598703 1.16315 1.57116 1.77906 1.85465 2.00385 2.15197 2.09537 1.87346 1.62347 1.47555 1.23556 0.820263 0.581878 0.432388 0.409882 0.291737 0.194093 0.0695595 0.0770545 0 0 -0.0814262 -0.274016 -0.478102 -0.736862 -0.877167 -0.958898 -1.25856 -1.5283 -1.81684 -2.10747 -2.35448 -2.59594 -2.66374 -2.39996 -1.90336 -1.50565 -1.24751 -0.782445 -0.153363 0.583998 1.14468 1.55295 1.75757 1.82866 1.98046 2.12752 2.07419 1.85549 1.60702 1.46538 1.22825 0.817275 0.580803 0.432216 0.41036 0.296211 0.198437 0.0725846 0.0791819 0 0 -0.0755074 -0.268027 -0.467036 -0.724803 -0.865708 -0.945348 -1.2423 -1.50934 -1.7887 -2.07399 -2.3142 -2.55342 -2.6228 -2.36538 -1.87864 -1.48682 -1.23283 -0.778421 -0.158822 0.563936 1.1137 1.51756 1.71612 1.78088 1.93388 2.07837 2.02921 1.8156 1.57149 1.43835 1.20728 0.805259 0.573766 0.427965 0.407254 0.299191 0.202236 0.0764247 0.0826828 0 0 -0.066184 -0.257036 -0.448042 -0.702256 -0.841803 -0.917659 -1.20885 -1.46915 -1.73524 -2.01246 -2.24252 -2.47685 -2.54791 -2.29927 -1.82802 -1.44714 -1.20153 -0.762905 -0.160806 0.539221 1.07005 1.46528 1.65472 1.7125 1.86447 2.00578 1.96054 1.75373 1.51738 1.39511 1.17326 0.784738 0.560869 0.420331 0.400784 0.300788 0.205376 0.0811804 0.0872856 0 0 -0.0542143 -0.240301 -0.421148 -0.669061 -0.805611 -0.876006 -1.15834 -1.40787 -1.6571 -1.92303 -2.14059 -2.36705 -2.43941 -2.20221 -1.75152 -1.38657 -1.15337 -0.735984 -0.159293 0.509793 1.01585 1.39643 1.57498 1.62401 1.77301 1.91081 1.86969 1.67147 1.44536 1.33642 1.12674 0.755658 0.542504 0.409096 0.391353 0.300978 0.207661 0.0870341 0.0929818 0 0 -0.0389251 -0.218221 -0.386788 -0.626095 -0.757277 -0.820844 -1.09089 -1.32688 -1.55539 -1.80755 -2.00944 -2.22494 -2.29926 -2.0756 -1.64985 -1.30569 -1.08926 -0.698078 -0.153926 0.476222 0.95149 1.31201 1.47775 1.51654 1.66075 1.79424 1.75721 1.56966 1.35685 1.26288 1.06826 0.718505 0.519047 0.394097 0.378573 0.299376 0.209575 0.0936388 0.0997057 0 0 -0.0212503 -0.192145 -0.345418 -0.573288 -0.697398 -0.752569 -1.00754 -1.22733 -1.43163 -1.66724 -1.85063 -2.05262 -2.12942 -1.92106 -1.52486 -1.20581 -1.00962 -0.648663 -0.144618 0.438508 0.877465 1.21358 1.3638 1.3907 1.52938 1.65763 1.62461 1.44979 1.2524 1.17578 0.99858 0.673587 0.490771 0.375966 0.363215 0.296323 0.211233 0.100982 0.107522 0 0 -0.000499236 -0.162175 -0.297483 -0.511146 -0.626956 -0.672459 -0.90982 -1.11014 -1.28753 -1.50327 -1.66607 -1.85293 -1.93153 -1.74112 -1.37774 -1.08778 -0.91554 -0.588799 -0.131151 0.397743 0.794418 1.1025 1.2348 1.24892 1.38065 1.50296 1.47369 1.31321 1.1339 1.0761 0.918888 0.621154 0.458111 0.354988 0.345132 0.291722 0.212622 0.109451 0.116124 0 0 0.0229223 -0.128006 -0.24317 -0.440906 -0.546943 -0.581643 -0.798288 -0.976742 -1.12459 -1.31792 -1.45824 -1.62836 -1.70812 -1.53804 -1.21039 -0.953644 -0.808534 -0.519087 -0.11356 0.354756 0.70406 0.979952 1.0926 1.09284 1.21651 1.3319 1.3066 1.16207 1.00267 0.964724 0.830548 0.562158 0.421673 0.331551 0.32512 0.285257 0.214132 0.118175 0.126154 0 0 0.0474796 -0.091338 -0.18457 -0.363752 -0.459288 -0.481602 -0.67555 -0.829524 -0.945303 -1.11286 -1.23018 -1.38246 -1.46211 -1.31445 -1.025 -0.804877 -0.690124 -0.441419 -0.0928816 0.309656 0.606825 0.847008 0.938543 0.924535 1.03878 1.14634 1.12512 0.997926 0.860225 0.843216 0.73487 0.497739 0.381802 0.305863 0.303448 0.276804 0.215354 0.127493 0.137466 0 0 0.0735548 -0.0515949 -0.121802 -0.280482 -0.363926 -0.372999 -0.542368 -0.670469 -0.751894 -0.892008 -0.984313 -1.11775 -1.19623 -1.07231 -0.823787 -0.643946 -0.561474 -0.356879 -0.068476 0.262932 0.503973 0.705866 0.775043 0.746632 0.849983 0.948591 0.931647 0.822802 0.708114 0.71355 0.632693 0.429296 0.338495 0.277706 0.279895 0.26676 0.215877 0.137329 0.149509 0 0 0.101643 -0.00910801 -0.0552926 -0.191992 -0.26158 -0.257157 -0.400028 -0.500704 -0.546744 -0.658011 -0.723856 -0.836875 -0.913812 -0.814523 -0.609678 -0.471686 -0.423969 -0.266029 -0.0408995 0.215064 0.397567 0.558808 0.604119 0.560861 0.652561 0.741703 0.72886 0.638942 0.548587 0.577284 0.52484 0.357029 0.292726 0.247153 0.255362 0.255758 0.215665 0.147142 0.162858 0 0 0.130736 0.0355898 0.014058 -0.100209 -0.154614 -0.136335 -0.250436 -0.322425 -0.332116 -0.413844 -0.452129 -0.543709 -0.618463 -0.54431 -0.385739 -0.290969 -0.279344 -0.16981 -0.0111555 0.167353 0.288921 0.407221 0.428402 0.369831 0.448665 0.5276 0.519111 0.449402 0.383834 0.435759 0.413151 0.281914 0.24582 0.215795 0.229891 0.244201 0.214846 0.157354 0.177011 0 0 0.160704 0.0810366 0.0847958 -0.00621045 -0.0445093 -0.0117289 -0.0960166 -0.138541 -0.110836 -0.163127 -0.172994 -0.242476 -0.313846 -0.265571 -0.154664 -0.10432 -0.129648 -0.0696505 0.0209451 0.120535 0.178392 0.252832 0.249626 0.176205 0.24098 0.309059 0.304893 0.256296 0.216775 0.290896 0.298967 0.204814 0.197929 0.183928 0.203502 0.232121 0.213472 0.167507 0.191606 0 0 0.191183 0.127001 0.157362 0.0900802 0.0682754 0.115581 0.0621053 0.0497698 0.114383 0.0913373 0.109782 0.0637124 -0.00404603 0.0186724 0.0810218 0.0861753 0.0238684 0.034059 0.0553696 0.0754436 0.0682186 0.0976018 0.0704414 -0.0174138 0.0323826 0.0891218 0.0892686 0.0623743 0.0490152 0.145284 0.184047 0.12665 0.149518 0.152201 0.176812 0.218954 0.21184 0.177279 0.207032 0 0 0.221598 0.172829 0.230198 0.186745 0.181788 0.244174 0.221639 0.23965 0.340149 0.346603 0.392305 0.370734 0.307554 0.304535 0.31764 0.278076 0.179051 0.140395 0.0913297 0.0324528 -0.040107 -0.0561376 -0.107039 -0.208951 -0.174843 -0.129731 -0.125746 -0.129702 -0.117647 0.000631039 0.0696341 0.0490262 0.101217 0.120442 0.150289 0.205092 0.210049 0.186811 0.223793 0 0 0.252618 0.218756 0.302613 0.283158 0.294831 0.371646 0.380149 0.428893 0.5637 0.599867 0.672038 0.675072 0.617365 0.588435 0.552862 0.468605 0.333925 0.247785 0.128563 -0.00801693 -0.145142 -0.206536 -0.281116 -0.395986 -0.377523 -0.344736 -0.336994 -0.317822 -0.280887 -0.142033 -0.0427451 -0.026865 0.0539292 0.0893354 0.124174 0.190901 0.208109 0.195883 0.24114 0 0 0.284238 0.264383 0.373913 0.378336 0.406275 0.497115 0.535636 0.61482 0.781848 0.847293 0.945452 0.972549 0.921609 0.86702 0.783807 0.655557 0.486169 0.354922 0.166841 -0.0461568 -0.245744 -0.351231 -0.449928 -0.57603 -0.573274 -0.552497 -0.541624 -0.499805 -0.438116 -0.280155 -0.152041 -0.100312 0.0081893 0.059245 0.0989235 0.177219 0.206065 0.205016 0.258918 0 0 0.315589 0.309381 0.443624 0.471365 0.515192 0.619293 0.686817 0.795235 0.993405 1.0864 1.20967 1.26012 1.21645 1.13741 1.00742 0.836501 0.634551 0.460156 0.206095 -0.0804478 -0.340388 -0.488868 -0.610374 -0.74654 -0.7593 -0.749807 -0.736574 -0.672987 -0.587315 -0.411782 -0.256426 -0.169667 -0.0344494 0.0310365 0.0750141 0.163584 0.203678 0.214028 0.276535 0 0 0.346183 0.352804 0.510514 0.560337 0.619706 0.737008 0.831503 0.96747 1.1951 1.31399 1.46103 1.53419 1.49741 1.39604 1.22085 1.0088 0.777475 0.562174 0.245324 -0.110499 -0.428131 -0.61796 -0.760814 -0.905518 -0.933475 -0.934782 -0.919718 -0.83468 -0.726721 -0.535243 -0.354874 -0.234296 -0.0741378 0.00471729 0.0527113 0.150334 0.201455 0.22268 0.294704 0 0 0.376652 0.393546 0.572965 0.644789 0.718871 0.848188 0.967813 1.12963 1.38435 1.52675 1.69657 1.79116 1.76075 1.63935 1.42114 1.17043 0.912856 0.65967 0.283861 -0.136489 -0.507622 -0.736765 -0.898959 -1.05083 -1.09337 -1.10495 -1.08874 -0.983232 -0.854763 -0.649891 -0.446263 -0.293623 -0.110554 -0.0192349 0.0320729 0.137465 0.199215 0.230909 0.312994 0 0 0.405841 0.43143 0.630915 0.723368 0.810645 0.951129 1.09427 1.27961 1.5589 1.72231 1.91293 2.02805 2.00315 1.86414 1.60597 1.31953 1.03887 0.751272 0.32092 -0.158239 -0.578701 -0.843962 -1.0229 -1.18117 -1.23672 -1.25793 -1.24133 -1.11735 -0.969476 -0.753643 -0.529364 -0.347257 -0.143106 -0.0408072 0.0135449 0.124934 0.196661 0.238689 0.331204 0 0 0.433501 0.466475 0.684435 0.795002 0.894248 1.04508 1.20964 1.41587 1.71711 1.89875 2.10804 2.24165 2.22275 2.06805 1.77382 1.45543 1.15369 0.836029 0.3567 -0.175423 -0.639468 -0.937408 -1.13102 -1.29406 -1.36107 -1.39219 -1.37498 -1.23423 -1.06907 -0.845439 -0.601817 -0.393615 -0.170628 -0.0592217 -0.001902 0.113784 0.194108 0.246009 0.349205 0 0 0.459438 0.49847 0.73294 0.859108 0.968967 1.12839 1.31236 1.53711 1.85705 2.05369 2.27917 2.42944 2.4168 2.2488 1.92249 1.57586 1.25644 0.913212 0.391301 -0.1871 -0.690045 -1.01633 -1.22118 -1.38804 -1.46521 -1.5055 -1.48777 -1.33243 -1.15272 -0.923474 -0.663143 -0.432362 -0.192767 -0.0741127 -0.0144284 0.104209 0.192496 0.252582 0.367303 0 0 0.484106 0.527139 0.775178 0.914707 1.03391 1.20023 1.40074 1.64175 1.97588 2.18498 2.42464 2.58907 2.58292 2.40377 2.04948 1.67879 1.34539 0.981839 0.424305 -0.193188 -0.72923 -1.07935 -1.29287 -1.46211 -1.54799 -1.59719 -1.57907 -1.41084 -1.21952 -0.98684 -0.712745 -0.463287 -0.209796 -0.085467 -0.0240534 0.0959856 0.191741 0.25794 0.384996 0 0 0.506783 0.551728 0.810928 0.961158 1.08801 1.25961 1.47383 1.7282 2.07231 2.2912 2.54241 2.71852 2.71876 2.53118 2.15315 1.76337 1.42004 1.0407 0.454595 -0.194259 -0.756672 -1.1262 -1.34559 -1.51515 -1.60824 -1.66582 -1.64806 -1.46934 -1.26824 -1.0346 -0.750412 -0.485833 -0.221191 -0.0932824 -0.0304751 0.089336 0.191089 0.262532 0.402073 0 0 0.527581 0.57201 0.839992 0.997901 1.13101 1.30611 1.53068 1.79543 2.14593 2.37124 2.6315 2.8165 2.82285 2.62969 2.23275 1.82867 1.47937 1.08946 0.482317 -0.190434 -0.772524 -1.15615 -1.37801 -1.5464 -1.64498 -1.7094 -1.69378 -1.50684 -1.29787 -1.06576 -0.775633 -0.499148 -0.226793 -0.0968468 -0.0329093 0.0845521 0.190955 0.267279 0.418618 0 0 0.54637 0.587735 0.861629 1.02506 1.16261 1.33961 1.57085 1.84247 2.19578 2.4243 2.69023 2.88158 2.89395 2.69791 2.28742 1.87388 1.52202 1.12725 0.506822 -0.180791 -0.77613 -1.16778 -1.38991 -1.55508 -1.65749 -1.72784 -1.71525 -1.52204 -1.30777 -1.08011 -0.78769 -0.503066 -0.225882 -0.096169 -0.0318865 0.0819844 0.191514 0.272082 0.434859 0 0 0.563244 0.598615 0.87554 1.04249 1.18238 1.35871 1.59451 1.86891 2.22085 2.44919 2.7178 2.91342 2.93124 2.73501 2.31604 1.89842 1.54744 1.15374 0.527783 -0.165688 -0.767161 -1.16081 -1.38132 -1.54047 -1.64578 -1.72117 -1.71184 -1.51479 -1.29815 -1.07793 -0.78594 -0.497336 -0.218681 -0.0908741 -0.0269522 0.0820338 0.19275 0.276956 0.450945 0 0 0.57745 0.604292 0.88135 1.05007 1.18994 1.36338 1.60107 1.87467 2.22067 2.44563 2.71403 2.91179 2.93426 2.74097 2.3182 1.90196 1.55589 1.16886 0.544089 -0.145347 -0.745123 -1.13628 -1.35143 -1.50332 -1.60966 -1.68973 -1.68373 -1.48536 -1.26925 -1.05909 -0.770999 -0.48253 -0.205059 -0.0812245 -0.0188377 0.0840213 0.194358 0.280791 0.466078 0 0 0.58944 0.60472 0.879355 1.04748 1.18511 1.35367 1.59072 1.85975 2.19549 2.41383 2.67882 2.87641 2.90299 2.71602 2.29418 1.88399 1.5474 1.17222 0.556742 -0.119848 -0.710339 -1.09404 -1.30097 -1.44396 -1.54975 -1.63274 -1.63126 -1.43434 -1.22122 -1.0233 -0.742805 -0.458153 -0.18499 -0.0670722 -0.00788486 0.0881454 0.19659 0.284258 0.479969 0 0 0.599321 0.601031 0.870022 1.03496 1.16836 1.33057 1.56428 1.82473 2.14603 2.35395 2.61263 2.80736 2.83836 2.66001 2.24429 1.84516 1.52278 1.16434 0.56594 -0.0897632 -0.662689 -1.03485 -1.23058 -1.3627 -1.46697 -1.551 -1.55512 -1.36172 -1.15417 -0.971204 -0.702036 -0.424734 -0.158943 -0.0490394 0.00640677 0.0944241 0.199662 0.287299 0.49254 0 0 0.606346 0.59271 0.853547 1.01318 1.14018 1.29432 1.52154 1.77046 2.0727 2.26755 2.51728 2.70558 2.74093 2.57422 2.16934 1.78652 1.48203 1.14501 0.571141 -0.0554536 -0.603194 -0.959721 -1.14113 -1.26085 -1.36214 -1.44626 -1.45606 -1.26839 -1.0692 -0.903568 -0.649102 -0.382899 -0.127799 -0.0270435 0.0239665 0.103489 0.203615 0.289348 0.503688 0 0 0.610359 0.579344 0.830326 0.98216 1.10068 1.2452 1.46279 1.69728 1.97717 2.15548 2.39394 2.57301 2.6117 2.45908 2.07017 1.7086 1.42564 1.11486 0.57234 -0.0171125 -0.532313 -0.869679 -1.03379 -1.13979 -1.23705 -1.31977 -1.33512 -1.15542 -0.967128 -0.821598 -0.584513 -0.332635 -0.091503 -0.00157664 0.0444741 0.11412 0.2079 0.291139 0.513561 0 0 0.611719 0.561655 0.800126 0.941836 1.05104 1.18401 1.38946 1.60574 1.86088 2.0191 2.24386 2.41131 2.45305 2.31706 1.94808 1.61238 1.35424 1.07451 0.569351 0.0246919 -0.451349 -0.76507 -0.909605 -1.00088 -1.09298 -1.17242 -1.19377 -1.02479 -0.849183 -0.725683 -0.509027 -0.274679 -0.0506002 0.027193 0.0676119 0.126319 0.213289 0.292162 0.522168 0 0 0.610509 0.539627 0.764223 0.892621 0.991753 1.11122 1.30219 1.49706 1.72503 1.85994 2.0685 2.22249 2.26719 2.14961 1.80455 1.4992 1.26942 1.02417 0.562133 0.0697557 -0.361155 -0.646585 -0.769851 -0.845783 -0.930911 -1.00603 -1.034 -0.877737 -0.716704 -0.616559 -0.42335 -0.209481 -0.00554671 0.0590891 0.0932229 0.140208 0.219234 0.293105 0.529682 0 0 0.60684 0.51337 0.722483 0.83558 0.92339 1.02796 1.20178 1.37286 1.57155 1.68035 1.86987 2.00912 2.05561 1.95863 1.64111 1.37074 1.17209 0.964332 0.550998 0.117557 -0.262802 -0.515646 -0.616879 -0.676738 -0.753146 -0.823134 -0.857742 -0.716556 -0.571537 -0.496216 -0.32842 -0.138026 0.0426888 0.0940186 0.120861 0.155185 0.22552 0.293823 0.535758 0 0 0.601213 0.483836 0.675837 0.771768 0.84676 0.935702 1.08975 1.23512 1.40202 1.48313 1.65145 1.77422 1.82175 1.74656 1.46061 1.22866 1.0635 0.896483 0.536828 0.167708 -0.15729 -0.374378 -0.45231 -0.495006 -0.562108 -0.625962 -0.667444 -0.542217 -0.415468 -0.365512 -0.22553 -0.0614894 0.0944992 0.131781 0.150446 0.171443 0.232744 0.294534 0.540293 0 0 0.593646 0.45155 0.625121 0.701451 0.763044 0.835275 0.967673 1.08517 1.21886 1.2705 1.41609 1.52062 1.56853 1.51608 1.2651 1.07502 0.944938 0.821515 0.519486 0.219971 -0.0464503 -0.224418 -0.277974 -0.303065 -0.360166 -0.417592 -0.465268 -0.356837 -0.250339 -0.226186 -0.115648 0.0190254 0.149484 0.171242 0.181989 0.18934 0.241118 0.29505 0.54335 0 0 0.584173 0.417241 0.570766 0.625621 0.673324 0.728003 0.836968 0.92526 1.02442 1.04516 1.16627 1.25171 1.29855 1.27034 1.05698 0.911883 0.817967 0.740354 0.498895 0.273644 0.0694383 -0.0673602 -0.0961387 -0.103895 -0.14965 -0.199988 -0.253701 -0.162694 -0.0781913 -0.0803416 -0.000438554 0.102395 0.205934 0.21179 0.21479 0.20864 0.250222 0.295025 0.544854 0 0 0.573175 0.381111 0.513676 0.5455 0.578456 0.615498 0.699406 0.757532 0.821435 0.809398 0.905497 0.970673 1.01524 1.01228 0.839338 0.740891 0.684518 0.654378 0.475707 0.328103 0.188505 0.0949093 0.0909518 0.100355 0.0661572 0.0247223 -0.0353144 0.0372766 0.0986226 0.0699465 0.118468 0.187684 0.263072 0.252921 0.248912 0.228985 0.259944 0.294282 0.544584 0 0 0.561283 0.343942 0.454108 0.461966 0.480285 0.499417 0.557072 0.58422 0.612679 0.566808 0.637631 0.681077 0.722755 0.74569 0.615422 0.564331 0.546198 0.564976 0.450899 0.382867 0.309365 0.259914 0.280446 0.307028 0.285061 0.253378 0.187012 0.239965 0.278794 0.222806 0.239938 0.27439 0.320437 0.294777 0.283718 0.250403 0.270189 0.292778 0.542795 0 0 0.548202 0.305986 0.393439 0.377051 0.37993 0.381682 0.411835 0.407243 0.40064 0.320669 0.365548 0.386564 0.424752 0.473835 0.388096 0.384499 0.405357 0.473143 0.424666 0.437005 0.431073 0.425778 0.470964 0.514013 0.504791 0.483212 0.4107 0.444474 0.460305 0.377071 0.362512 0.36213 0.377762 0.336244 0.318542 0.272672 0.28098 0.2905 0.539403 0 0 0.534178 0.267618 0.332241 0.291157 0.278668 0.263087 0.265258 0.229175 0.187589 0.0744024 0.0933078 0.090566 0.125322 0.200184 0.159746 0.203729 0.263325 0.380132 0.397689 0.49007 0.551477 0.590315 0.660359 0.718218 0.722274 0.711993 0.633244 0.647233 0.640175 0.531026 0.484961 0.448753 0.434334 0.37702 0.353562 0.295535 0.292369 0.287672 0.53448 0 0 0.51924 0.229076 0.270354 0.205479 0.177907 0.145387 0.119672 0.0525846 -0.0227138 -0.168717 -0.175633 -0.203027 -0.172208 -0.0717925 -0.0660616 0.0248438 0.121967 0.287582 0.370524 0.541758 0.66975 0.751544 0.845732 0.916826 0.934373 0.93631 0.851869 0.845222 0.816565 0.682883 0.605603 0.533309 0.488762 0.417055 0.388226 0.318699 0.304233 0.284865 0.528663 0 0 0.503554 0.191248 0.209337 0.121683 0.0784202 0.0300649 -0.0226383 -0.120782 -0.228608 -0.405719 -0.438454 -0.490491 -0.463953 -0.338591 -0.286645 -0.150246 -0.0167377 0.195727 0.342914 0.590882 0.784442 0.907704 1.02441 1.10747 1.13842 1.15345 1.06373 1.03654 0.986638 0.830437 0.723012 0.615344 0.540617 0.455681 0.421947 0.342205 0.316967 0.282301 0.522208 0 0 0.487246 0.154261 0.150677 0.040238 -0.017941 -0.0816505 -0.159983 -0.288594 -0.427485 -0.633584 -0.691634 -0.768323 -0.746341 -0.597131 -0.499632 -0.319229 -0.15107 0.105435 0.315054 0.637606 0.894096 1.05659 1.19423 1.28764 1.33185 1.36033 1.26653 1.21891 1.14771 0.971266 0.835246 0.694139 0.589629 0.492406 0.454498 0.365183 0.329232 0.280559 0.514998 0 0 0.470426 0.118838 0.0952495 -0.0378697 -0.109672 -0.188311 -0.291017 -0.448164 -0.615833 -0.849425 -0.932048 -1.03246 -1.01532 -0.843683 -0.701755 -0.479628 -0.279389 0.0175847 0.286875 0.680772 0.997171 1.19617 1.35329 1.45567 1.51211 1.55388 1.45692 1.39018 1.29838 1.10338 0.940804 0.768196 0.635288 0.526718 0.485462 0.387608 0.341253 0.278831 0.507097 0 0 0.453382 0.0860773 0.0426625 -0.111957 -0.195944 -0.287944 -0.414159 -0.598177 -0.792005 -1.05044 -1.15657 -1.2799 -1.26799 -1.07565 -0.890808 -0.629547 -0.40073 -0.0663972 0.259297 0.719943 1.09249 1.32451 1.49921 1.60961 1.67724 1.73241 1.63218 1.54846 1.43655 1.22502 1.03831 0.836338 0.677205 0.558826 0.514596 0.408929 0.353234 0.277124 0.498478 0 0 0.436428 0.0559471 -0.00556226 -0.180384 -0.275196 -0.379747 -0.527629 -0.7366 -0.953453 -1.23439 -1.36197 -1.50737 -1.50103 -1.28951 -1.06406 -0.766681 -0.513378 -0.145638 0.233009 0.755117 1.17809 1.44037 1.63063 1.74772 1.82562 1.8937 1.79058 1.69162 1.56108 1.33538 1.12691 0.898253 0.714681 0.587468 0.541252 0.428907 0.36504 0.276402 0.488898 0 0 0.419907 0.0282838 -0.0489697 -0.242275 -0.34654 -0.462234 -0.629782 -0.861381 -1.09821 -1.39845 -1.54537 -1.7114 -1.71143 -1.48292 -1.21983 -0.889954 -0.615553 -0.218735 0.208031 0.78506 1.25358 1.54271 1.74581 1.86821 1.9554 2.03609 1.93055 1.81753 1.66998 1.43287 1.20531 0.952992 0.747476 0.612889 0.565279 0.44763 0.376703 0.275512 0.479007 0 0 0.403918 0.00294312 -0.08697 -0.29751 -0.408935 -0.534628 -0.719773 -0.970932 -1.22418 -1.54051 -1.70554 -1.89012 -1.89716 -1.65262 -1.35589 -0.997473 -0.706127 -0.284852 0.184645 0.809346 1.31787 1.62966 1.84347 1.96895 2.06492 2.15748 2.05023 1.92427 1.76116 1.5157 1.27237 1.00017 0.774576 0.634289 0.58607 0.465303 0.387625 0.274174 0.469008 0 0 0.388536 -0.0188568 -0.119291 -0.344991 -0.461752 -0.595505 -0.796068 -1.06362 -1.32953 -1.65883 -1.84027 -2.04081 -2.05577 -1.79633 -1.47065 -1.08765 -0.783768 -0.342815 0.162797 0.827902 1.37036 1.70036 1.92263 2.04895 2.15286 2.25678 2.14781 2.01038 1.8339 1.58302 1.32774 1.0391 0.795882 0.651903 0.603772 0.481201 0.397825 0.273067 0.459113 0 0 0.373595 -0.0371598 -0.146039 -0.384384 -0.505107 -0.644427 -0.857685 -1.13817 -1.41357 -1.75285 -1.94786 -2.16147 -2.18453 -1.91318 -1.56236 -1.16009 -0.847586 -0.392401 0.142479 0.840493 1.41064 1.75367 1.9809 2.1076 2.218 2.3322 2.22214 2.07551 1.88736 1.63385 1.37105 1.0692 0.811222 0.665378 0.618021 0.495377 0.407004 0.271743 0.449669 0 0 0.35972 -0.0519881 -0.166559 -0.415184 -0.537656 -0.680688 -0.903478 -1.1939 -1.47491 -1.8206 -2.02603 -2.25083 -2.28166 -2.00181 -1.63 -1.21398 -0.896929 -0.432817 0.124348 0.846835 1.43791 1.7892 2.0181 2.14364 2.25987 2.3822 2.27232 2.11888 1.92135 1.66793 1.40146 1.08963 0.820085 0.674636 0.628288 0.507134 0.415488 0.270344 0.440565 0 0 0.346817 -0.0631898 -0.18016 -0.436725 -0.55945 -0.70376 -0.93339 -1.23071 -1.51324 -1.86156 -2.07408 -2.30764 -2.34602 -2.06059 -1.67254 -1.24844 -0.931526 -0.463666 0.108269 0.847074 1.45224 1.80669 2.03405 2.15694 2.27754 2.4065 2.2975 2.13982 1.93564 1.68491 1.41861 1.10017 0.822823 0.679507 0.635001 0.516561 0.422818 0.269019 0.431953 0 0 0.335501 -0.0703221 -0.186648 -0.448197 -0.570192 -0.713768 -0.947247 -1.24728 -1.52796 -1.87489 -2.0904 -2.33097 -2.37731 -2.08883 -1.68971 -1.26239 -0.950422 -0.484847 0.0945167 0.840908 1.45268 1.80541 2.02801 2.14705 2.27072 2.40475 2.29741 2.13774 1.92954 1.68455 1.42186 1.1007 0.819088 0.679658 0.63862 0.523956 0.429074 0.267728 0.424028 0 0 0.325792 -0.0736718 -0.186131 -0.449609 -0.569172 -0.710274 -0.944513 -1.24351 -1.51863 -1.86049 -2.07536 -2.32093 -2.37479 -2.08631 -1.68137 -1.25554 -0.952973 -0.495895 0.0828639 0.828073 1.43925 1.78545 2.00054 2.11406 2.23883 2.37653 2.27204 2.11268 1.90278 1.66706 1.41142 1.09121 0.809099 0.675281 0.639005 0.528571 0.434426 0.266373 0.416899 0 0 0.317668 -0.0725938 -0.178525 -0.441202 -0.557007 -0.693231 -0.925464 -1.21981 -1.48567 -1.81886 -2.02945 -2.2777 -2.33833 -2.05327 -1.64721 -1.22845 -0.939056 -0.496377 0.0736318 0.809553 1.41181 1.74696 1.95268 2.05896 2.18277 2.32257 2.22196 2.0649 1.85587 1.63262 1.38794 1.07183 0.793094 0.666537 0.635643 0.530255 0.438293 0.264847 0.410255 0 0 0.311141 -0.0678535 -0.164099 -0.423338 -0.53378 -0.662763 -0.890431 -1.17648 -1.42898 -1.74989 -1.95362 -2.20183 -2.2686 -1.99024 -1.58751 -1.18085 -0.909055 -0.486466 0.0676105 0.785477 1.37102 1.69065 1.88446 1.98225 2.10317 2.24404 2.14779 1.99552 1.78988 1.58227 1.35209 1.04308 0.771049 0.65352 0.628532 0.530012 0.441328 0.263634 0.404917 0 0 0.306542 -0.0594042 -0.142943 -0.396075 -0.499635 -0.619703 -0.83971 -1.11366 -1.3498 -1.65522 -1.84883 -2.09351 -2.16666 -1.898 -1.50289 -1.11325 -0.863111 -0.466545 0.0650883 0.756337 1.31814 1.61759 1.79628 1.88426 2.00106 2.14158 2.05075 1.90554 1.70558 1.5164 1.30396 1.00547 0.743525 0.636408 0.618662 0.527286 0.443523 0.262627 0.400478 0 0 0.304226 -0.0469388 -0.11529 -0.359965 -0.454923 -0.564259 -0.773782 -1.03177 -1.24899 -1.53622 -1.71682 -1.95527 -2.03352 -1.77769 -1.39447 -1.02684 -0.802478 -0.436395 0.0657933 0.722214 1.25304 1.52839 1.68949 1.76631 1.87719 2.01695 1.93198 1.79516 1.60377 1.43565 1.24371 0.959102 0.710223 0.615051 0.605585 0.522209 0.444263 0.261506 0.396654 0 0 0.30424 -0.0307798 -0.0815654 -0.315635 -0.400744 -0.497569 -0.694104 -0.932387 -1.12761 -1.39396 -1.55878 -1.78953 -1.87119 -1.63081 -1.26383 -0.92257 -0.72801 -0.39586 0.0692573 0.683852 1.1763 1.42423 1.56613 1.63022 1.73358 1.87123 1.79265 1.66629 1.48565 1.34079 1.17173 0.904589 0.67207 0.590212 0.58847 0.51476 0.444105 0.259965 0.393747 0 0 0.306327 -0.0109308 -0.0423894 -0.263367 -0.337098 -0.420142 -0.601234 -0.816841 -0.987089 -1.2297 -1.37663 -1.59683 -1.68196 -1.45885 -1.11328 -0.801932 -0.63978 -0.345445 0.0759594 0.641238 1.08915 1.30681 1.4275 1.47761 1.57266 1.70652 1.63464 1.5205 1.35338 1.23273 1.08951 0.842948 0.629338 0.561838 0.568563 0.50531 0.442453 0.258637 0.391844 0 0 0.310824 0.0121442 0.00222098 -0.203628 -0.264851 -0.332924 -0.496395 -0.686703 -0.82918 -1.04599 -1.17297 -1.37994 -1.46758 -1.26359 -0.94453 -0.666295 -0.538836 -0.286182 0.0862827 0.595211 0.992682 1.17801 1.27512 1.31041 1.39606 1.52505 1.46076 1.35938 1.20838 1.11308 0.997606 0.775291 0.582565 0.530308 0.546083 0.494083 0.439587 0.257404 0.390877 0 0 0.317763 0.0383119 0.0521614 -0.136377 -0.184728 -0.236786 -0.381151 -0.543017 -0.656829 -0.844883 -0.950135 -1.14153 -1.23027 -1.04765 -0.759429 -0.517122 -0.427035 -0.219236 0.0997505 0.546478 0.888523 1.03883 1.11097 1.13051 1.20588 1.32974 1.27363 1.18545 1.05256 0.983813 0.897165 0.701822 0.532454 0.495671 0.521334 0.48108 0.436056 0.255832 0.39104 0 0 0.32725 0.0677469 0.106477 -0.063487 -0.0980357 -0.133094 -0.256798 -0.387884 -0.471355 -0.629002 -0.71027 -0.885185 -0.974084 -0.814362 -0.559722 -0.356839 -0.305272 -0.145252 0.116274 0.495469 0.778082 0.89066 0.936802 0.94032 1.00456 1.12306 1.07468 1.00108 0.887461 0.847281 0.789389 0.623861 0.479736 0.458988 0.494314 0.466733 0.431468 0.254125 0.39223 0 0 0.338917 0.0993059 0.164769 0.0136636 -0.00565486 -0.0233362 -0.124662 -0.223073 -0.274945 -0.400864 -0.457123 -0.613806 -0.702368 -0.566995 -0.3484 -0.187503 -0.175182 -0.0652181 0.135619 0.442795 0.662732 0.736612 0.754903 0.743038 0.794754 0.907113 0.8662 0.808056 0.715637 0.704181 0.67573 0.542678 0.424678 0.420783 0.46491 0.45099 0.425916 0.252122 0.394668 0 0 0.352794 0.13246 0.225343 0.0945461 0.0909301 0.0906872 0.0134142 -0.0515131 -0.0704209 -0.163412 -0.193144 -0.330547 -0.41815 -0.30845 -0.127916 -0.0113094 -0.0384396 0.0197911 0.15736 0.389576 0.543721 0.578565 0.5676 0.540811 0.579523 0.684905 0.651438 0.609196 0.53875 0.556897 0.558248 0.45919 0.368291 0.38166 0.43414 0.433596 0.419618 0.249742 0.398804 0 0 0.368117 0.167103 0.288071 0.178082 0.190311 0.207667 0.155824 0.125224 0.13984 0.0806506 0.0778373 -0.0384761 -0.124208 -0.0415761 0.097941 0.169704 0.102596 0.108856 0.181723 0.3367 0.422761 0.417617 0.378016 0.335976 0.361305 0.458966 0.432919 0.406918 0.359716 0.40717 0.438277 0.37428 0.312042 0.34183 0.402312 0.415063 0.412556 0.247498 0.404281 0 0 0.385237 0.202557 0.35254 0.263313 0.291869 0.326523 0.300405 0.305191 0.353128 0.327914 0.351978 0.258502 0.174895 0.23027 0.326797 0.353509 0.246685 0.20093 0.207421 0.28495 0.301441 0.256067 0.188232 0.131152 0.142949 0.231971 0.21377 0.204294 0.179972 0.256276 0.317677 0.288856 0.255843 0.301575 0.369006 0.396212 0.40461 0.24463 0.41102 0 0 0.403665 0.238574 0.417853 0.349868 0.393938 0.446661 0.44564 0.485342 0.567469 0.575554 0.62599 0.556486 0.475725 0.503645 0.556641 0.537622 0.391591 0.295061 0.234751 0.234819 0.181972 0.0960708 0.00103255 -0.0708936 -0.0724533 0.00641535 -0.00392748 0.00345929 0.00188712 0.106332 0.197701 0.204339 0.200788 0.261665 0.335304 0.376349 0.395731 0.240832 0.418431 0 0 0.423427 0.274983 0.483001 0.436459 0.495027 0.566086 0.589933 0.663453 0.779618 0.820204 0.896571 0.851647 0.774567 0.77594 0.784406 0.720217 0.536194 0.390811 0.263978 0.187238 0.0654957 -0.059934 -0.18134 -0.267374 -0.282876 -0.214651 -0.21783 -0.193071 -0.171816 -0.0407763 0.0802363 0.121683 0.147532 0.222671 0.302186 0.356509 0.386271 0.237169 0.427093 0 0 0.444392 0.311104 0.54699 0.522167 0.594944 0.68303 0.731486 0.837192 0.986908 1.05883 1.16129 1.14089 1.06765 1.043 1.00663 0.898262 0.67799 0.486694 0.294568 0.142193 -0.046662 -0.210667 -0.356726 -0.45603 -0.48558 -0.428205 -0.42538 -0.382703 -0.339127 -0.183191 -0.0337217 0.0415514 0.0968763 0.184964 0.269625 0.33674 0.376437 0.233715 0.436876 0 0 0.46629 0.345938 0.609093 0.605426 0.691808 0.795847 0.867989 1.00501 1.18655 1.28812 1.4163 1.42003 1.35146 1.30103 1.22041 1.06932 0.816128 0.581222 0.325523 0.100577 -0.152874 -0.354331 -0.523458 -0.633979 -0.677238 -0.631761 -0.623132 -0.562877 -0.497741 -0.318987 -0.142471 -0.03528 0.0495827 0.148868 0.238063 0.317089 0.366605 0.229769 0.448023 0 0 0.48887 0.379276 0.668909 0.685889 0.783813 0.90335 0.998233 1.16502 1.37581 1.50527 1.65826 1.68603 1.62247 1.54711 1.42373 1.23154 0.948437 0.673421 0.356735 0.062159 -0.25191 -0.489059 -0.67951 -0.799029 -0.855835 -0.822631 -0.808792 -0.731566 -0.646139 -0.446423 -0.244726 -0.107167 0.00549047 0.114905 0.207427 0.297469 0.356773 0.226035 0.460086 0 0 0.511681 0.41096 0.725443 0.762032 0.870364 1.00378 1.12068 1.31456 1.55247 1.7077 1.88379 1.93503 1.87698 1.77824 1.61349 1.38312 1.07286 0.762666 0.387823 0.0280853 -0.34308 -0.61294 -0.822504 -0.949344 -1.01877 -0.998535 -0.980244 -0.88624 -0.781832 -0.563777 -0.339555 -0.173299 -0.0346498 0.0840395 0.178964 0.278316 0.347145 0.222539 0.473266 0 0 0.534899 0.440769 0.778522 0.832952 0.950644 1.09633 1.23357 1.45258 1.71392 1.89281 2.09029 2.16439 2.11175 1.99146 1.78759 1.5218 1.18787 0.847099 0.41859 -0.00114553 -0.425369 -0.724235 -0.950292 -1.08269 -1.16387 -1.15727 -1.13472 -1.02452 -0.903237 -0.669059 -0.425438 -0.233113 -0.0700652 0.0565249 0.152926 0.259769 0.337651 0.219317 0.487366 0 0 0.558574 0.467939 0.82748 0.897936 1.02366 1.18051 1.33545 1.57749 1.85838 2.05754 2.27471 2.37078 2.32398 2.18394 1.94409 1.64536 1.29255 0.925228 0.448612 -0.0254551 -0.497423 -0.821576 -1.06127 -1.19761 -1.28991 -1.29704 -1.27016 -1.14523 -1.00805 -0.761147 -0.501377 -0.285398 -0.100334 0.0331461 0.129902 0.2425 0.328223 0.216304 0.501933 0 0 0.582237 0.492565 0.871941 0.955522 1.08842 1.25464 1.42555 1.6866 1.98376 2.20033 2.43558 2.55172 2.511 2.35332 2.08061 1.75293 1.38524 0.996023 0.477563 -0.044879 -0.55802 -0.903593 -1.15397 -1.29291 -1.39534 -1.41573 -1.3853 -1.24756 -1.09513 -0.839341 -0.565835 -0.329211 -0.124574 0.0140037 0.109747 0.226614 0.319247 0.213086 0.516493 0 0 0.605164 0.514118 0.910882 1.00567 1.14435 1.31764 1.50218 1.77864 2.08887 2.31948 2.57087 2.70529 2.67064 2.4977 2.19572 1.84283 1.46484 1.05866 0.505473 -0.0589455 -0.607227 -0.969126 -1.22754 -1.36716 -1.47863 -1.51143 -1.47835 -1.32911 -1.16351 -0.902086 -0.617987 -0.364305 -0.142533 -0.000884121 0.0929827 0.212067 0.310677 0.210105 0.531406 0 0 0.627307 0.532193 0.944083 1.0476 1.19065 1.36898 1.56413 1.85316 2.17238 2.41345 2.67873 2.82974 2.80105 2.61517 2.28771 1.91389 1.53054 1.11274 0.531746 -0.0676354 -0.644596 -1.01794 -1.28068 -1.41952 -1.53855 -1.58339 -1.54801 -1.38931 -1.21224 -0.948598 -0.657805 -0.389769 -0.154329 -0.0110266 0.0800167 0.199422 0.302777 0.207519 0.546197 0 0 0.648156 0.54616 0.970588 1.08067 1.22697 1.40821 1.61051 1.90893 2.23329 2.48157 2.75761 2.92306 2.90062 2.70461 2.35531 1.96508 1.58109 1.15772 0.556027 -0.0707574 -0.66875 -1.04971 -1.31253 -1.44887 -1.57446 -1.6306 -1.59372 -1.42771 -1.2412 -0.978434 -0.684918 -0.405234 -0.159551 -0.0166177 0.0700916 0.188403 0.296072 0.205115 0.560657 0 0 0.669432 0.555939 0.990658 1.10485 1.253 1.4345 1.64186 1.94512 2.27121 2.52257 2.80652 2.98424 2.9685 2.76436 2.39719 1.99656 1.61609 1.19333 0.577667 -0.0679328 -0.679635 -1.06314 -1.32317 -1.45429 -1.58508 -1.65144 -1.61465 -1.44314 -1.24956 -0.991396 -0.698622 -0.410461 -0.157296 -0.0175196 0.0640124 0.180022 0.290951 0.20