<VTKFile type="ImageData">
<ImageData WholeExtent="0 40 0 999 0 0" Origin="0 0 0" Spacing="1 0.0615 1">
<Piece Extent="0 40 0 999 0 0">
<PointData>
<DataArray Name="phi" NumberOfComponents="1" format="ascii" type="Float64">
0 -0.000158751 0.000140157 -0.000262145 -0.000802597 -0.000876423 -0.000950646 -0.00177889 -0.00233133 -0.00200044 -0.00166391 -0.00217912 -0.00218154 -0.00209151 -0.00233249 -0.00234827 -0.00181087 -0.00179959 -0.00212585 -0.00224086 -0.00170174 -0.00223644 -0.00240858 -0.00202863 -0.0017423 -0.00204737 -0.00180802 -0.00185398 -0.00137202 -0.000718278 -0.000776783 -0.0011029 -0.00083009 -0.00116451 -0.00147719 -0.00134581 -0.0010257 -0.00088224 -0.000196474 1.00088e-05 0 0 0.00117546 0.00488938 0.00114727 -0.00557967 -0.006326 -0.00672333 -0.0164227 -0.0221949 -0.0186203 -0.0147836 -0.0210738 -0.0197928 -0.0197889 -0.0218909 -0.02173 -0.0174239 -0.0166086 -0.0195753 -0.0205779 -0.0147027 -0.0206204 -0.0237539 -0.0189692 -0.015895 -0.0189794 -0.0158159 -0.0176235 -0.0121535 -0.00402722 -0.00527511 -0.00846363 -0.00456727 -0.00973229 -0.0130086 -0.0106104 -0.00657294 -0.0064965 0.00220804 0.00391607 0 0 0.00893744 0.0163716 0.00976976 -0.00427042 -0.00598123 -0.00668567 -0.0241686 -0.0361335 -0.0290314 -0.0213141 -0.032802 -0.0305466 -0.029999 -0.0351753 -0.0343096 -0.0272631 -0.0255559 -0.0287147 -0.0310901 -0.0204269 -0.0321256 -0.0384688 -0.0293616 -0.0229204 -0.0294901 -0.0227577 -0.0266385 -0.0167392 -0.00192252 -0.00274856 -0.00853856 -0.00116472 -0.0125239 -0.0195257 -0.0134584 -0.00490876 -0.0055094 0.0107291 0.0136903 0 0 0.0218749 0.0340267 0.024864 0.00482558 0.00219857 -0.00060341 -0.0250311 -0.0432793 -0.0329337 -0.0212454 -0.0366373 -0.0343279 -0.0332963 -0.0421037 -0.0401866 -0.0300319 -0.0270453 -0.0298988 -0.0345878 -0.0192638 -0.0368146 -0.0456966 -0.0328722 -0.0233945 -0.0348172 -0.0219967 -0.0273656 -0.0151148 0.00565669 0.00608455 -0.00029764 0.00848175 -0.00836765 -0.0195352 -0.00967295 0.00308872 0.00293766 0.024961 0.0289888 0 0 0.0416981 0.0581351 0.0463036 0.0216028 0.0169371 0.0116856 -0.0185594 -0.0438377 -0.0303373 -0.0152377 -0.0327223 -0.0305425 -0.0304895 -0.0416901 -0.0390619 -0.0256229 -0.0216255 -0.0236315 -0.0307456 -0.0109494 -0.0344592 -0.0455073 -0.0298434 -0.0178703 -0.033514 -0.0152348 -0.0209498 -0.00707381 0.0183665 0.02073 0.0139816 0.0221629 0.0010334 -0.0126143 0.000751639 0.0172929 0.0179812 0.0463255 0.0514105 0 0 0.0676761 0.0895927 0.0738128 0.0449523 0.0374242 0.0309412 -0.00474025 -0.036264 -0.020592 -0.0028386 -0.0219648 -0.0199485 -0.021715 -0.0345242 -0.0293487 -0.0148929 -0.00896757 -0.0101725 -0.0194236 0.00414084 -0.0253321 -0.0383497 -0.0198701 -0.006584 -0.0246026 -0.00132275 -0.0074737 0.00872275 0.0364857 0.0415411 0.0346692 0.0408421 0.017095 0.000591833 0.0167947 0.0372252 0.0406029 0.0744216 0.0788534 0 0 0.0988202 0.125757 0.106311 0.0733844 0.0624672 0.05729 0.0146374 -0.0211051 -0.00531226 0.0153957 -0.00335003 -0.00449098 -0.00597883 -0.0220222 -0.0136954 0.00123394 0.00970231 0.00870094 -0.00224285 0.0227031 -0.0104809 -0.0245942 -0.00468912 0.00938772 -0.00867453 0.0184476 0.0121706 0.0301349 0.0590193 0.0679254 0.059728 0.0640479 0.0391751 0.0184503 0.0381756 0.0619252 0.0680935 0.105927 0.109811 0 0 0.134655 0.165661 0.143638 0.106628 0.0919102 0.0877332 0.0392706 0.00115199 0.0147304 0.0402117 0.0211883 0.0178778 0.0166249 -0.00431025 0.00691633 0.0231112 0.0339646 0.0335818 0.0216737 0.0464842 0.00902298 -0.00466897 0.0168611 0.0306701 0.0130318 0.0434065 0.0387803 0.0583993 0.0866132 0.0976065 0.0886372 0.0923606 0.066079 0.0411984 0.064313 0.092541 0.100883 0.141336 0.145398 0 0 0.175237 0.208768 0.185507 0.143311 0.126833 0.123178 0.0696999 0.0291853 0.0397677 0.0701083 0.052776 0.0460621 0.0444607 0.0194869 0.0329322 0.0501422 0.0629786 0.0640903 0.0513883 0.0755259 0.0344064 0.0203275 0.0442518 0.0577141 0.041273 0.0738734 0.0707945 0.0924769 0.119821 0.132498 0.123274 0.125832 0.0966477 0.0688815 0.0965961 0.1286 0.138584 0.182476 0.186721 0 0 0.220011 0.255358 0.232229 0.183759 0.166743 0.16191 0.105689 0.0627085 0.0714786 0.105205 0.0904314 0.079936 0.0778015 0.0504709 0.0669986 0.0825101 0.0975135 0.0993906 0.0858885 0.109566 0.0655892 0.051037 0.0772005 0.0901929 0.0750333 0.110924 0.108049 0.131141 0.157573 0.172208 0.162424 0.164955 0.132514 0.101218 0.133702 0.169453 0.180627 0.228797 0.232321 0 0 0.270208 0.304374 0.282824 0.228706 0.211008 0.205855 0.14781 0.102877 0.109877 0.145724 0.13357 0.118905 0.117659 0.0877156 0.106985 0.120213 0.138462 0.140214 0.126034 0.147345 0.102006 0.0886263 0.116342 0.128466 0.114429 0.153475 0.1499 0.174638 0.19999 0.217506 0.206151 0.208138 0.173583 0.138607 0.175792 0.215476 0.226581 0.27818 0.28211 0 0 0.324594 0.355142 0.335408 0.277064 0.259657 0.254002 0.194175 0.149022 0.153378 0.189812 0.181019 0.162806 0.16311 0.129917 0.151951 0.162405 0.183953 0.184296 0.171024 0.188663 0.144276 0.131664 0.160567 0.171314 0.160378 0.200222 0.195536 0.222319 0.246631 0.266878 0.254843 0.254809 0.219556 0.182585 0.222954 0.264981 0.277095 0.33042 0.335181 0 0 0.384163 0.409588 0.390932 0.328825 0.312942 0.306022 0.24564 0.200794 0.202177 0.238893 0.232842 0.211386 0.212207 0.177908 0.202844 0.209397 0.233671 0.232444 0.220538 0.235333 0.191912 0.179998 0.210146 0.219606 0.211747 0.252294 0.246982 0.273292 0.297595 0.318996 0.307549 0.30594 0.270527 0.231625 0.27422 0.318746 0.333006 0.385978 0.391885 0 0 0.447956 0.466154 0.447619 0.383665 0.367962 0.360215 0.302378 0.257945 0.254359 0.291687 0.288416 0.265046 0.264599 0.230673 0.258143 0.260255 0.287802 0.285136 0.273793 0.286547 0.244379 0.233146 0.265248 0.272388 0.266545 0.308234 0.303984 0.327298 0.352072 0.3753 0.362078 0.360391 0.325484 0.285768 0.329997 0.375278 0.392118 0.444089 0.451371 0 0 0.513994 0.524685 0.504901 0.440728 0.425173 0.417332 0.362024 0.318497 0.31062 0.347387 0.346933 0.322644 0.320615 0.286822 0.316353 0.31535 0.344814 0.341518 0.330745 0.34059 0.301371 0.289632 0.323756 0.329092 0.324458 0.367791 0.363838 0.38439 0.40782 0.433616 0.41921 0.417053 0.383393 0.344525 0.389649 0.43443 0.452598 0.503367 0.512229 0 0 0.580787 0.584615 0.563994 0.500288 0.483496 0.47597 0.424695 0.381499 0.369656 0.405149 0.406812 0.383794 0.380179 0.346231 0.377301 0.373186 0.403778 0.401702 0.389676 0.398623 0.361555 0.350682 0.385527 0.388715 0.384913 0.430342 0.427331 0.443999 0.465163 0.493528 0.479706 0.476625 0.443288 0.407271 0.451894 0.496816 0.514382 0.564177 0.576147 0 0 0.648402 0.645399 0.625239 0.56081 0.543197 0.535152 0.490577 0.446664 0.43241 0.465646 0.469341 0.447939 0.442707 0.408899 0.440627 0.433894 0.464947 0.466031 0.450182 0.458883 0.42478 0.415157 0.450222 0.450282 0.447793 0.494313 0.49355 0.506129 0.524051 0.555377 0.54037 0.537878 0.503715 0.472067 0.51509 0.560432 0.576704 0.625039 0.639943 0 0 0.716684 0.705939 0.68733 0.622428 0.605226 0.597271 0.559085 0.513409 0.497755 0.528382 0.535604 0.514245 0.508318 0.47396 0.50661 0.496299 0.528818 0.531919 0.512522 0.520332 0.489492 0.481583 0.516621 0.513388 0.511646 0.559731 0.561289 0.56902 0.58352 0.617714 0.601432 0.599636 0.565407 0.539034 0.580033 0.624919 0.640394 0.685749 0.702684 0 0 0.784184 0.76668 0.74865 0.68437 0.667094 0.659589 0.62834 0.582225 0.564344 0.592222 0.603597 0.582235 0.574697 0.541474 0.574796 0.5606 0.595351 0.600871 0.577894 0.584056 0.556819 0.550123 0.584856 0.578186 0.575896 0.625804 0.630996 0.633113 0.644798 0.680826 0.663744 0.662594 0.62954 0.607683 0.646883 0.689951 0.704823 0.746544 0.765158 0 0 0.849728 0.826493 0.809459 0.7467 0.72821 0.723374 0.69741 0.652017 0.633475 0.656755 0.671347 0.651088 0.641129 0.610705 0.64425 0.62658 0.663699 0.670692 0.646453 0.648885 0.626438 0.619654 0.65416 0.644422 0.641782 0.692263 0.701427 0.698069 0.707885 0.743204 0.726642 0.726389 0.695399 0.677438 0.715488 0.754681 0.76863 0.806594 0.827585 0 0 0.914123 0.884876 0.870192 0.807946 0.788069 0.787007 0.766106 0.72166 0.703571 0.721385 0.738726 0.720365 0.708265 0.681799 0.715364 0.692444 0.73207 0.739889 0.716028 0.716307 0.696558 0.688775 0.723207 0.712279 0.70892 0.759506 0.772407 0.763971 0.771424 0.804795 0.789029 0.788994 0.761088 0.74813 0.784039 0.818063 0.830802 0.865901 0.88925 0 0 0.976634 0.94153 0.930283 0.86944 0.847817 0.849925 0.833972 0.792305 0.775087 0.786906 0.804447 0.791282 0.776199 0.754108 0.786816 0.759056 0.799924 0.809411 0.785418 0.783789 0.766969 0.756662 0.792228 0.779076 0.775984 0.826845 0.842701 0.83004 0.834351 0.866111 0.85002 0.849713 0.826226 0.818385 0.850042 0.878884 0.892128 0.923136 0.94823 0 0 1.03561 0.994626 0.987295 0.928847 0.90549 0.91182 0.899786 0.861827 0.845056 0.850887 0.869095 0.862105 0.842639 0.827168 0.857495 0.82463 0.86658 0.877579 0.853945 0.851194 0.836484 0.823541 0.859729 0.84463 0.842398 0.892631 0.91126 0.894468 0.895824 0.926094 0.908962 0.90858 0.890598 0.88802 0.914013 0.938892 0.951389 0.978843 1.00327 0 0 1.09 1.04377 1.04104 0.984309 0.959806 0.971632 0.963036 0.928909 0.91318 0.913059 0.932528 0.930438 0.907665 0.900452 0.927086 0.888888 0.931844 0.944019 0.920442 0.917998 0.905366 0.889099 0.925955 0.908988 0.907224 0.958064 0.978327 0.956901 0.955514 0.984174 0.965699 0.965864 0.952426 0.955557 0.975599 0.997894 1.00923 1.03159 1.0551 0 0 1.13993 1.09026 1.09211 1.03703 1.01156 1.02979 1.02331 0.995193 0.97883 0.973371 0.994589 0.99832 0.971799 0.971655 0.995233 0.95258 0.996092 1.00822 0.984785 0.983308 0.973019 0.953962 0.991289 0.972122 0.970149 1.02306 1.04394 1.01746 1.0132 1.04 1.0206 1.02189 1.01271 1.02082 1.03545 1.05503 1.06374 1.08137 1.10329 0 0 1.18472 1.13336 1.14032 1.08708 1.06152 1.08536 1.08252 1.06031 1.04324 1.03235 1.05453 1.06398 1.03409 1.03928 1.0612 1.0149 1.05814 1.07145 1.04785 1.04694 1.03837 1.01762 1.05499 1.0327 1.03089 1.08659 1.10774 1.07459 1.06737 1.0932 1.07273 1.07596 1.07083 1.08243 1.09271 1.10992 1.11437 1.12711 1.1478 0 0 1.22534 1.17311 1.18553 1.13506 1.10906 1.13875 1.13962 1.12353 1.10576 1.08842 1.11192 1.12702 1.09378 1.10359 1.12251 1.07516 1.11693 1.13144 1.10943 1.1076 1.10046 1.08013 1.11712 1.09209 1.0901 1.14752 1.16759 1.12868 1.1174 1.14273 1.12105 1.1278 1.12517 1.14149 1.14755 1.16151 1.16038 1.16889 1.18715 0 0 1.26086 1.2091 1.22816 1.17936 1.15457 1.18949 1.19411 1.18352 1.16504 1.14174 1.16727 1.18719 1.15008 1.16507 1.17974 1.13213 1.17177 1.18809 1.16795 1.16503 1.15884 1.13997 1.17664 1.14951 1.14664 1.20536 1.22213 1.17958 1.16408 1.18932 1.16593 1.17608 1.17651 1.19697 1.20001 1.2091 1.20245 1.20772 1.22317 0 0 1.2917 1.24128 1.26803 1.22017 1.1968 1.23592 1.24483 1.24049 1.22159 1.19353 1.2194 1.2424 1.20314 1.22367 1.23369 1.18547 1.223 1.24273 1.22332 1.21916 1.21333 1.19721 1.23352 1.20418 1.19973 1.25998 1.27177 1.22678 1.20749 1.23304 1.20842 1.22181 1.22423 1.24735 1.24944 1.25319 1.24148 1.24381 1.25602 0 0 1.31794 1.27111 1.30395 1.25806 1.2339 1.27911 1.29185 1.29324 1.27473 1.24187 1.26876 1.293 1.25273 1.27862 1.28296 1.23472 1.26999 1.29349 1.27376 1.26911 1.26509 1.25084 1.2867 1.25668 1.25005 1.30965 1.31707 1.27121 1.24631 1.27277 1.24675 1.26356 1.26795 1.29327 1.29445 1.29237 1.27749 1.27641 1.28321 0 0 1.33943 1.29601 1.33532 1.29244 1.26846 1.31915 1.33379 1.34157 1.32401 1.28609 1.31458 1.33989 1.29828 1.32934 1.3296 1.27912 1.3122 1.34066 1.31984 1.3159 1.31296 1.30091 1.33549 1.30446 1.296 1.35459 1.35802 1.31213 1.28135 1.30766 1.28077 1.29985 1.30741 1.3343 1.33422 1.32716 1.30902 1.30533 1.30527 0 0 1.3564 1.31642 1.36184 1.32245 1.29964 1.35513 1.3721 1.38439 1.36941 1.32559 1.35592 1.38276 1.33977 1.37575 1.37235 1.31917 1.34894 1.38332 1.36213 1.35838 1.35617 1.3459 1.38008 1.34798 1.33784 1.39466 1.39512 1.34874 1.3142 1.33836 1.31105 1.3315 1.34276 1.37081 1.36941 1.35788 1.33655 1.33066 1.3239 0 0 1.36856 1.33256 1.38575 1.34778 1.32667 1.38602 1.40598 1.42163 1.40895 1.36016 1.39271 1.41987 1.37765 1.41703 1.41125 1.35335 1.38161 1.42125 1.40004 1.39568 1.39392 1.38553 1.42084 1.38649 1.37413 1.42895 1.42762 1.37998 1.34317 1.36624 1.3371 1.35803 1.37404 1.40272 1.39927 1.38401 1.35866 1.35011 1.33824 0 0 1.37662 1.34487 1.40572 1.36683 1.3506 1.41199 1.43435 1.45339 1.44272 1.39075 1.42432 1.45127 1.41095 1.45303 1.4447 1.38305 1.41051 1.45393 1.43228 1.42743 1.42615 1.41848 1.4551 1.42065 1.40335 1.45751 1.4553 1.40694 1.36934 1.39005 1.35868 1.37888 1.40041 1.42939 1.42338 1.40663 1.37497 1.36462 1.3481 0 0 1.38015 1.35295 1.42169 1.38157 1.37112 1.43297 1.45797 1.48077 1.472 1.41624 1.45066 1.47748 1.43907 1.48441 1.47324 1.40883 1.43553 1.4819 1.45886 1.45441 1.45349 1.44704 1.48365 1.45061 1.42752 1.48012 1.47827 1.43005 1.39032 1.40922 1.37563 1.39537 1.42222 1.45162 1.44222 1.42439 1.3865 1.37353 1.35319 0 0 1.37991 1.35759 1.43355 1.39286 1.38849 1.44953 1.47653 1.50223 1.49528 1.4362 1.47099 1.49734 1.46313 1.51016 1.4971 1.42915 1.45653 1.50478 1.47941 1.47631 1.47591 1.4719 1.50601 1.47551 1.44798 1.4969 1.49617 1.44843 1.40742 1.42397 1.38772 1.40855 1.43946 1.46823 1.45666 1.43725 1.39295 1.37767 1.35314 0 0 1.37532 1.35773 1.44042 1.39987 1.40139 1.46117 1.49026 1.51724 1.51363 1.45059 1.48658 1.51306 1.48235 1.53045 1.51477 1.4442 1.47206 1.52234 1.49466 1.4938 1.49288 1.49013 1.52297 1.49504 1.46263 1.50864 1.50825 1.46276 1.42122 1.4348 1.39598 1.41744 1.45141 1.47957 1.46531 1.44542 1.39538 1.37645 1.35017 0 0 1.36639 1.35375 1.44349 1.40232 1.40997 1.46825 1.50031 1.52678 1.5253 1.4602 1.49702 1.52345 1.49545 1.54425 1.52636 1.45524 1.48198 1.53408 1.50475 1.50638 1.50578 1.50369 1.5347 1.50874 1.47275 1.5148 1.51506 1.47252 1.42995 1.4416 1.39928 1.4229 1.46006 1.48578 1.46883 1.44966 1.39361 1.37007 1.34359 0 0 1.35361 1.34496 1.44186 1.40055 1.41409 1.47038 1.50542 1.53089 1.53087 1.46433 1.50306 1.52774 1.50206 1.55066 1.53221 1.46164 1.48678 1.54051 1.50917 1.51212 1.51455 1.51181 1.53986 1.51766 1.47759 1.515 1.51683 1.47692 1.43409 1.44435 1.39843 1.42464 1.46536 1.48795 1.46704 1.44917 1.3865 1.35797 1.33479 0 0 1.33809 1.33201 1.43588 1.39531 1.41495 1.46776 1.5058 1.53004 1.53225 1.46423 1.50407 1.52636 1.50466 1.55247 1.53163 1.46181 1.48713 1.54229 1.50826 1.5124 1.518 1.51461 1.53988 1.52207 1.47708 1.50948 1.51251 1.47596 1.43507 1.44234 1.39427 1.42297 1.46733 1.48697 1.461 1.44476 1.37548 1.34114 1.32423 0 0 1.32123 1.31638 1.42567 1.38731 1.41177 1.46185 1.50257 1.52478 1.52907 1.46053 1.50128 1.51948 1.5036 1.54919 1.52644 1.45743 1.48269 1.53881 1.50249 1.50844 1.51591 1.51265 1.53412 1.52144 1.47221 1.49935 1.50328 1.47057 1.43228 1.43584 1.38704 1.41803 1.46392 1.48254 1.45055 1.43684 1.36079 1.32043 1.3117 0 0 1.30269 1.29771 1.41101 1.37627 1.40439 1.45186 1.49487 1.51458 1.5213 1.45132 1.4942 1.50669 1.49779 1.54016 1.51711 1.44765 1.47366 1.5309 1.49185 1.50045 1.50761 1.50573 1.52375 1.51594 1.4631 1.48387 1.48998 1.46128 1.42468 1.42594 1.37688 1.40986 1.45582 1.47378 1.43633 1.42588 1.34189 1.29534 1.29719 0 0 1.283 1.27532 1.39293 1.3624 1.39314 1.43673 1.48196 1.49879 1.50806 1.43726 1.48239 1.48881 1.48704 1.52681 1.50295 1.43247 1.46034 1.51802 1.47744 1.48843 1.49519 1.49364 1.50846 1.50492 1.45082 1.46399 1.47153 1.44786 1.41403 1.41272 1.36315 1.39831 1.4431 1.46084 1.4169 1.41195 1.31963 1.26664 1.28037 0 0 1.26238 1.24963 1.37202 1.34588 1.37779 1.4167 1.46424 1.47863 1.48944 1.41887 1.46535 1.46699 1.47219 1.50924 1.48435 1.41321 1.44172 1.49933 1.45892 1.4714 1.47821 1.47648 1.48848 1.48868 1.43313 1.44062 1.4487 1.42992 1.4005 1.39586 1.3449 1.38336 1.42579 1.44341 1.39302 1.39382 1.29445 1.23462 1.26202 0 0 1.2413 1.22041 1.34787 1.32569 1.35906 1.394 1.44212 1.45313 1.46576 1.39696 1.44247 1.44147 1.45323 1.48631 1.46224 1.38961 1.41924 1.47565 1.43639 1.44899 1.45719 1.45468 1.46453 1.46873 1.41078 1.41404 1.42186 1.40842 1.38345 1.37533 1.32361 1.36497 1.40508 1.4215 1.36647 1.372 1.26695 1.20062 1.24368 0 0 1.22079 1.18841 1.32031 1.30318 1.33661 1.36844 1.41627 1.423 1.4361 1.37338 1.41573 1.41229 1.4305 1.45888 1.43563 1.36147 1.39396 1.44825 1.40948 1.42307 1.43257 1.42809 1.43635 1.44467 1.3842 1.38456 1.39143 1.38173 1.36328 1.35183 1.3003 1.34373 1.38042 1.3959 1.33779 1.34727 1.23805 1.16448 1.22613 0 0 1.20143 1.15316 1.28955 1.27863 1.31021 1.34076 1.38598 1.38845 1.4033 1.3461 1.38574 1.38077 1.40374 1.4287 1.40488 1.33108 1.36547 1.41649 1.37941 1.3925 1.40393 1.39672 1.40385 1.41641 1.35392 1.3513 1.35783 1.35004 1.34029 1.32563 1.27621 1.32027 1.35228 1.36613 1.30664 1.31941 1.20612 1.12577 1.20905 0 0 1.18349 1.11539 1.25736 1.25243 1.2825 1.31219 1.35209 1.35111 1.36785 1.31447 1.35302 1.34577 1.37348 1.39451 1.37039 1.29858 1.33357 1.38185 1.3458 1.35866 1.37198 1.36155 1.36772 1.38546 1.32133 1.31522 1.3211 1.31516 1.3143 1.29722 1.25013 1.29443 1.32194 1.33259 1.27297 1.28913 1.17263 1.08469 1.1936 0 0 1.16725 1.0752 1.22252 1.22393 1.2535 1.28296 1.31579 1.3111 1.33015 1.28081 1.31812 1.30776 1.34038 1.35548 1.33389 1.2637 1.29843 1.34434 1.30904 1.32177 1.3368 1.32274 1.32892 1.35169 1.28441 1.27709 1.28073 1.2788 1.28638 1.26648 1.2214 1.26677 1.28887 1.29672 1.23651 1.25599 1.13756 1.04246 1.17849 0 0 1.1529 1.03444 1.18674 1.19362 1.22282 1.25243 1.27643 1.2682 1.29013 1.24553 1.2808 1.26799 1.30425 1.31373 1.29567 1.22687 1.2607 1.30412 1.26963 1.28148 1.29761 1.28112 1.28764 1.31445 1.24553 1.23682 1.2387 1.24094 1.25571 1.23457 1.1904 1.23778 1.25217 1.2582 1.19769 1.22085 1.10143 0.998719 1.16426 0 0 1.14235 0.993837 1.15048 1.16374 1.19139 1.22118 1.23757 1.2241 1.24845 1.20909 1.24198 1.22709 1.26534 1.27018 1.25473 1.18951 1.22131 1.2616 1.22893 1.23865 1.25568 1.23695 1.24332 1.27503 1.20455 1.19505 1.19555 1.20225 1.22364 1.20147 1.15869 1.20727 1.21399 1.21772 1.15714 1.18407 1.06567 0.953012 1.15117 0 0 1.13507 0.95218 1.11341 1.13362 1.15992 1.18937 1.19859 1.17975 1.20555 1.17188 1.20289 1.1857 1.225 1.22643 1.21301 1.15156 1.18067 1.21694 1.18808 1.19564 1.21173 1.19228 1.19733 1.23395 1.16192 1.15411 1.15348 1.16433 1.19154 1.16833 1.127 1.17663 1.17463 1.17691 1.11696 1.1468 1.0303 0.907335 1.14183 0 0 1.13049 0.910568 1.07628 1.10284 1.12827 1.15702 1.15891 1.13572 1.16166 1.13384 1.16231 1.14332 1.18308 1.1827 1.16957 1.11182 1.13984 1.17184 1.14642 1.15111 1.16646 1.14609 1.15196 1.19159 1.11849 1.11456 1.11091 1.12594 1.158 1.13462 1.09579 1.14597 1.13549 1.13495 1.07699 1.10926 0.995509 0.86234 1.13577 0 0 1.13039 0.86955 1.03913 1.07197 1.09717 1.12476 1.11941 1.09123 1.11752 1.09634 1.12048 1.09933 1.14228 1.13839 1.12668 1.07171 1.10005 1.12748 1.10528 1.1076 1.12032 1.10048 1.10792 1.14913 1.0743 1.07532 1.06905 1.08765 1.12355 1.10129 1.06521 1.11483 1.09636 1.09248 1.0361 1.07259 0.96196 0.817614 1.13177 0 0 1.13254 0.828136 1.00214 1.04168 1.06732 1.09233 1.07978 1.0462 1.07384 1.05948 1.07859 1.05506 1.10232 1.09408 1.0831 1.03236 1.05927 1.08466 1.06495 1.06538 1.07398 1.05532 1.06456 1.10554 1.02967 1.0358 1.02775 1.05035 1.08907 1.06775 1.03464 1.08298 1.05799 1.04869 0.996369 1.03671 0.929227 0.772744 1.12955 0 0 1.1373 0.787375 0.96586 1.01324 1.03896 1.05939 1.04025 1.00173 1.03172 1.02427 1.03715 1.01196 1.06344 1.05089 1.04037 0.993728 1.01876 1.04274 1.02515 1.02445 1.02875 1.01151 1.02233 1.06245 0.986902 0.997646 0.988286 1.01378 1.05582 1.03574 1.0056 1.05105 1.02106 1.00595 0.958395 1.00095 0.898163 0.729515 1.13111 0 0 1.14522 0.748103 0.931193 0.986643 1.01183 1.02609 1.00108 0.95892 0.991634 0.990017 0.997648 0.970904 1.02561 1.01019 0.999093 0.956108 0.980007 1.00237 0.986036 0.985588 0.985421 0.968461 0.981276 1.02072 0.946391 0.96148 0.95084 0.977682 1.02251 1.00467 0.978852 1.01988 0.984312 0.965058 0.922203 0.965847 0.868247 0.688376 1.13549 0 0 1.15622 0.711674 0.897826 0.960805 0.985302 0.993464 0.963313 0.918218 0.953684 0.956601 0.959624 0.932216 0.988059 0.970597 0.959535 0.919811 0.943142 0.963394 0.948244 0.948653 0.943651 0.929224 0.941613 0.980088 0.906441 0.926971 0.916629 0.942593 0.990574 0.975688 0.954641 0.989963 0.949347 0.927159 0.888689 0.93196 0.839506 0.650243 1.14144 0 0 1.16883 0.677801 0.865729 0.936492 0.960305 0.962853 0.927214 0.880645 0.917618 0.925056 0.923551 0.896991 0.953076 0.932053 0.921938 0.88632 0.908935 0.926912 0.912026 0.914137 0.904092 0.891716 0.904813 0.94271 0.868797 0.895199 0.886662 0.910219 0.96026 0.948863 0.932491 0.962279 0.917827 0.892497 0.85705 0.900321 0.813395 0.615161 1.14904 0 0 1.18337 0.64675 0.836539 0.914006 0.937659 0.934706 0.893934 0.84602 0.884722 0.894798 0.889819 0.865016 0.919812 0.895174 0.886768 0.854946 0.877021 0.892791 0.877844 0.88129 0.867 0.857101 0.871425 0.907937 0.834301 0.866504 0.86041 0.881419 0.931772 0.924605 0.913828 0.936394 0.889873 0.861546 0.827959 0.870523 0.788349 0.583421 1.15873 0 0 1.20071 0.618753 0.810057 0.89349 0.917921 0.90758 0.86446 0.815511 0.854198 0.866436 0.858937 0.836628 0.888514 0.860565 0.855072 0.826514 0.847868 0.861874 0.847504 0.850805 0.833155 0.825503 0.842391 0.875861 0.803669 0.842026 0.836843 0.855794 0.905932 0.903819 0.897838 0.913334 0.864578 0.836169 0.803001 0.844331 0.765101 0.555374 1.17153 0 0 1.21941 0.594722 0.786233 0.87537 0.900153 0.884072 0.840242 0.790994 0.825996 0.840395 0.832139 0.81254 0.860782 0.829591 0.827636 0.802589 0.821976 0.834184 0.82113 0.823416 0.802933 0.797296 0.816511 0.846975 0.77706 0.820444 0.816914 0.832995 0.883465 0.886507 0.885417 0.894007 0.842858 0.814825 0.781974 0.82202 0.744882 0.532017 1.18771 0 0 1.24097 0.574754 0.765393 0.859786 0.884745 0.864409 0.820866 0.770598 0.802278 0.817091 0.809181 0.792794 0.837833 0.801705 0.803821 0.782475 0.799224 0.810041 0.798279 0.80107 0.776157 0.773525 0.795047 0.821632 0.754694 0.803059 0.801674 0.813153 0.864858 0.872212 0.876789 0.878001 0.824878 0.797054 0.76525 0.802439 0.72803 0.513929 1.20654 0 0 1.26414 0.559252 0.748606 0.84681 0.871581 0.850533 0.805582 0.754228 0.783198 0.797965 0.791151 0.779125 0.818649 0.779604 0.783801 0.766693 0.780807 0.791203 0.7789 0.784116 0.753296 0.754667 0.778075 0.800806 0.73746 0.790676 0.791182 0.798762 0.851014 0.861127 0.87166 0.864793 0.810826 0.783985 0.75255 0.787391 0.714731 0.501762 1.22793 0 0 1.2886 0.549225 0.735626 0.836944 0.860992 0.840841 0.793999 0.74236 0.769254 0.783505 0.777655 0.769733 0.803729 0.762283 0.767842 0.755373 0.766897 0.778085 0.764474 0.772709 0.735296 0.739972 0.76539 0.783535 0.724279 0.782592 0.785102 0.789396 0.840839 0.853792 0.869638 0.854887 0.800358 0.774171 0.743905 0.77636 0.705229 0.494686 1.25065 0 0 1.31389 0.545799 0.725965 0.831065 0.855075 0.835461 0.78666 0.736282 0.760903 0.774069 0.769195 0.765524 0.793795 0.751199 0.756715 0.749828 0.7576 0.76965 0.755818 0.766644 0.72337 0.73104 0.75775 0.770804 0.716327 0.780303 0.78401 0.784339 0.83439 0.850542 0.871463 0.851377 0.793895 0.769582 0.740001 0.76982 0.699236 0.494251 1.27447 0 0 1.34025 0.548299 0.721442 0.829635 0.853982 0.83348 0.784986 0.737084 0.757464 0.769611 0.766027 0.766629 0.789175 0.746809 0.751169 0.749198 0.752636 0.765878 0.751501 0.765351 0.716799 0.727462 0.7556 0.762831 0.71489 0.781727 0.787901 0.783517 0.833783 0.851208 0.87729 0.852415 0.791951 0.769833 0.740449 0.767311 0.697989 0.500026 1.2995 0 0 1.36825 0.555564 0.722036 0.832521 0.8568 0.835605 0.788668 0.743808 0.758661 0.770023 0.768068 0.773782 0.790076 0.748318 0.75192 0.754339 0.752505 0.768644 0.752301 0.768663 0.71595 0.73017 0.758535 0.761359 0.71935 0.787406 0.797916 0.788408 0.838094 0.85689 0.886575 0.858408 0.796025 0.774182 0.747036 0.770359 0.700538 0.511102 1.32641 0 0 1.39717 0.56811 0.727328 0.839115 0.863011 0.841929 0.79683 0.756318 0.766092 0.776916 0.7753 0.785368 0.796518 0.755595 0.758298 0.764195 0.758108 0.77789 0.758973 0.776792 0.720622 0.739029 0.766899 0.766141 0.729802 0.799325 0.813342 0.798558 0.847815 0.866902 0.899899 0.868923 0.805481 0.783107 0.759526 0.77813 0.707549 0.527079 1.35557 0 0 1.42673 0.585724 0.736858 0.849684 0.8733 0.852873 0.809479 0.774546 0.779442 0.78916 0.787993 0.801544 0.810243 0.767655 0.771188 0.780012 0.770563 0.792272 0.770974 0.789986 0.733143 0.754856 0.781631 0.777167 0.746569 0.817489 0.833094 0.814305 0.862689 0.881202 0.917074 0.884819 0.819845 0.798327 0.777442 0.790652 0.719028 0.548806 1.38649 0 0 1.45737 0.607456 0.750908 0.864884 0.888741 0.868051 0.827034 0.798323 0.797852 0.806068 0.805701 0.823098 0.828669 0.784747 0.790744 0.802196 0.789373 0.812547 0.788482 0.808729 0.752553 0.77647 0.802363 0.793825 0.768623 0.841151 0.858327 0.834347 0.88219 0.901487 0.938227 0.905614 0.839153 0.818718 0.800619 0.808739 0.734522 0.576298 1.41805 0 0 1.48876 0.635212 0.767413 0.885368 0.907692 0.888139 0.849449 0.826749 0.82261 0.829218 0.828552 0.849846 0.852564 0.808233 0.816906 0.828948 0.813827 0.839505 0.811891 0.832088 0.77789 0.803921 0.827349 0.816977 0.796097 0.870634 0.887717 0.859493 0.906457 0.926517 0.963167 0.931068 0.862173 0.844563 0.828566 0.83196 0.754932 0.609284 1.44959 0 0 1.52143 0.667757 0.787774 0.910762 0.931787 0.913527 0.877203 0.861012 0.853314 0.85788 0.855888 0.88302 0.882495 0.838462 0.848457 0.859583 0.843896 0.872663 0.84017 0.860654 0.807864 0.835747 0.856675 0.845398 0.829601 0.90563 0.921648 0.88906 0.933408 0.956533 0.991509 0.960976 0.888931 0.875452 0.860517 0.85998 0.779407 0.648671 1.48105 0 0 1.55419 0.70498 0.812616 0.940395 0.96018 0.943041 0.910283 0.901186 0.889533 0.891964 0.887825 0.921461 0.917084 0.87484 0.885448 0.894104 0.879613 0.911294 0.874315 0.893643 0.842682 0.872529 0.891325 0.880141 0.868673 0.945941 0.959459 0.922389 0.964332 0.990308 1.02278 0.995093 0.919785 0.910301 0.897478 0.891892 0.807929 0.692486 1.51364 0 0 1.58726 0.7474 0.841555 0.973148 0.992174 0.977376 0.948025 0.94538 0.930853 0.931209 0.924544 0.96386 0.95472 0.916145 0.926492 0.933703 0.920986 0.954627 0.914027 0.93125 0.883074 0.914451 0.931591 0.920188 0.913162 0.990748 1.00094 0.959249 1.0008 1.02788 1.05868 1.03245 0.956479 0.950897 0.939161 0.928142 0.841135 0.740831 1.54772 0 0 1.6202 0.793208 0.874341 1.00838 1.02753 1.01675 0.989276 0.993205 0.976841 0.973974 0.965902 1.00955 0.996377 0.962138 0.970945 0.977705 0.966782 1.00226 0.958839 0.97301 0.930117 0.9608 0.975536 0.965294 0.9628 1.04039 1.04671 1.00012 1.04136 1.06941 1.09819 1.07238 0.997485 0.995882 0.983401 0.967785 0.877174 0.792939 1.58307 0 0 1.65235 0.841846 0.908756 1.0451 1.06635 1.0592 1.03421 1.04365 1.02581 1.02104 1.01088 1.05851 1.04201 1.01135 1.01957 1.02603 1.01621 1.0536 1.00792 1.02013 0.981877 1.01153 1.02383 1.01551 1.01451 1.09426 1.096 1.04422 1.08542 1.11386 1.14093 1.11558 1.04146 1.04388 1.03144 1.01045 0.915664 0.847813 1.61947 0 0 1.68324 0.89339 0.945077 1.08303 1.10715 1.10401 1.08264 1.09813 1.07895 1.07159 1.05889 1.11076 1.09064 1.06434 1.07343 1.07751 1.0691 1.1078 1.06071 1.07003 1.0383 1.06696 1.07437 1.07038 1.06912 1.15034 1.14905 1.09193 1.13263 1.16093 1.18616 1.16229 1.08899 1.09453 1.08275 1.05572 0.95591 0.905876 1.65526 0 0 1.71354 0.947424 0.98236 1.12245 1.15013 1.15107 1.13366 1.15622 1.13472 1.12515 1.1103 1.16521 1.14373 1.1195 1.13109 1.13202 1.12537 1.16283 1.11693 1.12234 1.09921 1.12696 1.12687 1.12866 1.12596 1.20864 1.20462 1.14314 1.18269 1.21024 1.23342 1.21113 1.14015 1.1479 1.13543 1.10221 0.998481 0.966393 1.69081 0 0 1.74292 1.00447 1.02155 1.16373 1.19414 1.19924 1.18836 1.21487 1.19385 1.1816 1.16533 1.22182 1.20167 1.17714 1.19149 1.18848 1.18452 1.22017 1.17497 1.17666 1.16274 1.19016 1.18215 1.1896 1.1854 1.2701 1.26176 1.19673 1.2361 1.2613 1.28387 1.26155 1.19436 1.20444 1.19028 1.15015 1.04388 1.02873 1.72579 0 0 1.77116 1.06338 1.06235 1.20557 1.23943 1.24839 1.24571 1.27496 1.2553 1.24026 1.22375 1.28019 1.26153 1.23695 1.25411 1.24526 1.24584 1.27773 1.23388 1.2342 1.22701 1.25466 1.24058 1.25169 1.24578 1.33234 1.32066 1.25215 1.29043 1.31324 1.33502 1.31334 1.25128 1.26241 1.24767 1.19918 1.09054 1.0924 1.75847 0 0 1.79871 1.12312 1.10545 1.24886 1.28592 1.29926 1.30487 1.33591 1.31855 1.30026 1.28304 1.33957 1.32278 1.29903 1.31815 1.30306 1.30863 1.33593 1.29488 1.29362 1.2934 1.31932 1.30148 1.31469 1.30765 1.39481 1.37959 1.30973 1.3458 1.36481 1.38572 1.36653 1.30911 1.32106 1.30598 1.2488 1.13824 1.15587 1.78942 0 0 1.82497 1.18302 1.14973 1.29219 1.33342 1.34991 1.36384 1.39871 1.38336 1.36183 1.34321 1.39987 1.3857 1.36367 1.38425 1.3618 1.3725 1.39469 1.35821 1.35439 1.36164 1.38449 1.36338 1.37735 1.37111 1.45786 1.43758 1.36821 1.40159 1.41651 1.43547 1.41986 1.367 1.38004 1.36419 1.29918 1.18602 1.21893 1.81824 0 0 1.85 1.24238 1.19569 1.33534 1.38178 1.40063 1.42238 1.46224 1.44834 1.42299 1.40391 1.46066 1.44764 1.42919 1.45004 1.42116 1.43592 1.45306 1.42217 1.41508 1.4301 1.44985 1.42513 1.44018 1.43516 1.51998 1.49553 1.42694 1.45714 1.46768 1.48598 1.4722 1.42485 1.43748 1.42197 1.34991 1.2339 1.28088 1.84487 0 0 1.87381 1.29974 1.24247 1.37824 1.42928 1.45149 1.48034 1.5248 1.51275 1.48425 1.46425 1.52067 1.50911 1.49499 1.51378 1.48012 1.49949 1.51066 1.48772 1.47597 1.49679 1.51415 1.48597 1.50234 1.49863 1.58155 1.55309 1.48434 1.51201 1.51856 1.53495 1.52376 1.48307 1.49229 1.4784 1.40015 1.28261 1.34146 1.87078 0 0 1.89566 1.35548 1.29009 1.42051 1.47528 1.50281 1.53747 1.5851 1.57583 1.54434 1.52318 1.57983 1.56906 1.56116 1.57586 1.53789 1.56174 1.56647 1.55277 1.53676 1.56168 1.57671 1.54556 1.56408 1.56045 1.64108 1.60891 1.54101 1.56523 1.56866 1.58262 1.57477 1.54059 1.5463 1.53232 1.45014 1.33146 1.3993 1.89555 0 0 1.91501 1.40933 1.33749 1.46115 1.51923 1.55263 1.59348 1.64388 1.63656 1.602 1.58049 1.63751 1.62744 1.62629 1.63788 1.59464 1.62204 1.62075 1.6163 1.59566 1.62421 1.63666 1.60366 1.62402 1.6205 1.6975 1.66145 1.59716 1.61679 1.61629 1.6285 1.62391 1.597 1.59756 1.58385 1.49814 1.37853 1.45436 1.91724 0 0 1.93199 1.46046 1.38487 1.50104 1.56152 1.60079 1.64987 1.70069 1.69603 1.65744 1.63604 1.69312 1.68407 1.69006 1.69792 1.65062 1.68101 1.67419 1.67756 1.65336 1.68583 1.69562 1.66084 1.68256 1.67962 1.75094 1.70987 1.65197 1.66659 1.66236 1.67352 1.6705 1.65089 1.64704 1.63332 1.54438 1.42406 1.50694 1.93786 0 0 1.94883 1.50867 1.43197 1.5390